 Entering Gaussian System, Link 0=g16
 Initial command:
 /sw/group/lms/sw/g16_B01/g16/l1.exe "/work/job.13559061/Gau-46475.inp" -scrdir="/work/job.13559061/"
 Default is to use a total of  28 processors:
                               28 via shared-memory
                                1 via Linda
 Entering Link 1 = /sw/group/lms/sw/g16_B01/g16/l1.exe PID=     46476.
  
 Copyright (c) 1988-2017, Gaussian, Inc.  All Rights Reserved.
  
 This is part of the Gaussian(R) 16 program.  It is based on
 the Gaussian(R) 09 system (copyright 2009, Gaussian, Inc.),
 the Gaussian(R) 03 system (copyright 2003, Gaussian, Inc.),
 the Gaussian(R) 98 system (copyright 1998, Gaussian, Inc.),
 the Gaussian(R) 94 system (copyright 1995, Gaussian, Inc.),
 the Gaussian 92(TM) system (copyright 1992, Gaussian, Inc.),
 the Gaussian 90(TM) system (copyright 1990, Gaussian, Inc.),
 the Gaussian 88(TM) system (copyright 1988, Gaussian, Inc.),
 the Gaussian 86(TM) system (copyright 1986, Carnegie Mellon
 University), and the Gaussian 82(TM) system (copyright 1983,
 Carnegie Mellon University). Gaussian is a federally registered
 trademark of Gaussian, Inc.
  
 This software contains proprietary and confidential information,
 including trade secrets, belonging to Gaussian, Inc.
  
 This software is provided under written license and may be
 used, copied, transmitted, or stored only in accord with that
 written license.
  
 The following legend is applicable only to US Government
 contracts under FAR:
  
                    RESTRICTED RIGHTS LEGEND
  
 Use, reproduction and disclosure by the US Government is
 subject to restrictions as set forth in subparagraphs (a)
 and (c) of the Commercial Computer Software - Restricted
 Rights clause in FAR 52.227-19.
  
 Gaussian, Inc.
 340 Quinnipiac St., Bldg. 40, Wallingford CT 06492
  
  
 ---------------------------------------------------------------
 Warning -- This program may not be used in any manner that
 competes with the business of Gaussian, Inc. or will provide
 assistance to any competitor of Gaussian, Inc.  The licensee
 of this program is prohibited from giving any competitor of
 Gaussian, Inc. access to this program.  By using this program,
 the user acknowledges that Gaussian, Inc. is engaged in the
 business of creating and licensing software in the field of
 computational chemistry and represents and warrants to the
 licensee that it is not a competitor of Gaussian, Inc. and that
 it will not use this program in any manner prohibited above.
 ---------------------------------------------------------------
  

 Cite this work as:
 Gaussian 16, Revision B.01,
 M. J. Frisch, G. W. Trucks, H. B. Schlegel, G. E. Scuseria, 
 M. A. Robb, J. R. Cheeseman, G. Scalmani, V. Barone, 
 G. A. Petersson, H. Nakatsuji, X. Li, M. Caricato, A. V. Marenich, 
 J. Bloino, B. G. Janesko, R. Gomperts, B. Mennucci, H. P. Hratchian, 
 J. V. Ortiz, A. F. Izmaylov, J. L. Sonnenberg, D. Williams-Young, 
 F. Ding, F. Lipparini, F. Egidi, J. Goings, B. Peng, A. Petrone, 
 T. Henderson, D. Ranasinghe, V. G. Zakrzewski, J. Gao, N. Rega, 
 G. Zheng, W. Liang, M. Hada, M. Ehara, K. Toyota, R. Fukuda, 
 J. Hasegawa, M. Ishida, T. Nakajima, Y. Honda, O. Kitao, H. Nakai, 
 T. Vreven, K. Throssell, J. A. Montgomery, Jr., J. E. Peralta, 
 F. Ogliaro, M. J. Bearpark, J. J. Heyd, E. N. Brothers, K. N. Kudin, 
 V. N. Staroverov, T. A. Keith, R. Kobayashi, J. Normand, 
 K. Raghavachari, A. P. Rendell, J. C. Burant, S. S. Iyengar, 
 J. Tomasi, M. Cossi, J. M. Millam, M. Klene, C. Adamo, R. Cammi, 
 J. W. Ochterski, R. L. Martin, K. Morokuma, O. Farkas, 
 J. B. Foresman, and D. J. Fox, Gaussian, Inc., Wallingford CT, 2016.
 
 ******************************************
 Gaussian 16:  ES64L-G16RevB.01 20-Dec-2017
                 6-Apr-2023 
 ******************************************
 %chk=/home/d-singleton/n0/g16.chk
 ---------------------------------------------------------------
 #p M062X/may-cc-pVTZ freq=hpmodes int(grid=ultrafine) scf=tight
 ---------------------------------------------------------------
 1/10=4,30=1,38=1/1,3;
 2/12=2,17=6,18=5,40=1/2;
 3/5=16,6=1,7=70,11=2,25=1,30=1,71=2,74=-55,75=-5,140=1/1,2,3;
 4//1;
 5/5=2,32=2,38=5,98=1/2;
 8/6=4,10=90,11=11/1;
 11/6=1,8=1,9=11,15=111,16=1/1,2,10;
 10/6=1/2;
 6/7=2,8=2,9=2,10=2,28=1/1;
 7/8=11,10=1,25=1/1,2,3,16;
 1/10=4,30=1/3;
 99//99;
 Leave Link    1 at Thu Apr  6 18:52:45 2023, MaxMem=           0 cpu:               1.1 elap:               0.0
 (Enter /sw/group/lms/sw/g16_B01/g16/l101.exe)
 ---------------------------------------------------
 point on IRC for diimide + ethylene with NH = 1.065
 ---------------------------------------------------
 Symbolic Z-matrix:
 Charge =  0 Multiplicity = 1
 N                     1.38021   0.60453   0.2807 
 N                     1.38021  -0.60453   0.2807 
 H                     0.4063   -0.9868    0.08271 
 H                     0.4063    0.9868    0.08271 
 C                    -1.39961  -0.66839  -0.28465 
 C                    -1.39961   0.66839  -0.28465 
 H                    -1.27546   1.23291  -1.20011 
 H                    -1.64309  -1.23289   0.60653 
 H                    -1.27546  -1.23291  -1.20011 
 H                    -1.64309   1.23289   0.60653 
 
 ITRead=  0  0  0  0  0  0  0  0  0  0
 MicOpt= -1 -1 -1 -1 -1 -1 -1 -1 -1 -1
 NAtoms=     10 NQM=       10 NQMF=       0 NMMI=      0 NMMIF=      0
                NMic=       0 NMicF=      0.
                    Isotopes and Nuclear Properties:
 (Nuclear quadrupole moments (NQMom) in fm**2, nuclear magnetic moments (NMagM)
  in nuclear magnetons)

  Atom         1           2           3           4           5           6           7           8           9          10
 IAtWgt=          14          14           1           1          12          12           1           1           1           1
 AtmWgt=  14.0030740  14.0030740   1.0078250   1.0078250  12.0000000  12.0000000   1.0078250   1.0078250   1.0078250   1.0078250
 NucSpn=           2           2           1           1           0           0           1           1           1           1
 AtZEff=  -0.0000000  -0.0000000  -0.0000000  -0.0000000  -0.0000000  -0.0000000  -0.0000000  -0.0000000  -0.0000000  -0.0000000
 NQMom=    2.0440000   2.0440000   0.0000000   0.0000000   0.0000000   0.0000000   0.0000000   0.0000000   0.0000000   0.0000000
 NMagM=    0.4037610   0.4037610   2.7928460   2.7928460   0.0000000   0.0000000   2.7928460   2.7928460   2.7928460   2.7928460
 AtZNuc=   7.0000000   7.0000000   1.0000000   1.0000000   6.0000000   6.0000000   1.0000000   1.0000000   1.0000000   1.0000000
 Leave Link  101 at Thu Apr  6 18:52:45 2023, MaxMem=  6174015488 cpu:               2.7 elap:               0.1
 (Enter /sw/group/lms/sw/g16_B01/g16/l103.exe)

 GradGradGradGradGradGradGradGradGradGradGradGradGradGradGradGradGradGrad
 Berny optimization.
 Initialization pass.
 Trust Radius=3.00D-01 FncErr=1.00D-07 GrdErr=1.00D-07 EigMax=2.50D+02 EigMin=1.00D-04
 Number of steps in this run=      2 maximum allowed number of steps=      2.
 GradGradGradGradGradGradGradGradGradGradGradGradGradGradGradGradGradGrad

 Leave Link  103 at Thu Apr  6 18:52:45 2023, MaxMem=  6174015488 cpu:               0.5 elap:               0.1
 (Enter /sw/group/lms/sw/g16_B01/g16/l202.exe)
                          Input orientation:                          
 ---------------------------------------------------------------------
 Center     Atomic      Atomic             Coordinates (Angstroms)
 Number     Number       Type             X           Y           Z
 ---------------------------------------------------------------------
      1          7           0        1.380210    0.604533    0.280699
      2          7           0        1.380210   -0.604533    0.280699
      3          1           0        0.406295   -0.986797    0.082714
      4          1           0        0.406295    0.986797    0.082714
      5          6           0       -1.399606   -0.668391   -0.284649
      6          6           0       -1.399606    0.668391   -0.284649
      7          1           0       -1.275458    1.232905   -1.200105
      8          1           0       -1.643086   -1.232892    0.606528
      9          1           0       -1.275458   -1.232905   -1.200105
     10          1           0       -1.643086    1.232892    0.606528
 ---------------------------------------------------------------------
                    Distance matrix (angstroms):
                    1          2          3          4          5
     1  N    0.000000
     2  N    1.209066   0.000000
     3  H    1.876177   1.064817   0.000000
     4  H    1.064817   1.876177   1.973594   0.000000
     5  C    3.109233   2.837441   1.870192   2.477071   0.000000
     6  C    2.837441   3.109233   2.477071   1.870192   1.336782
     7  H    3.104868   3.552679   3.066104   2.129433   2.113859
     8  H    3.552832   3.105047   2.129532   3.066164   1.082654
     9  H    3.552679   3.104868   2.129433   3.066104   1.082658
    10  H    3.105047   3.552832   3.066164   2.129532   2.113849
                    6          7          8          9         10
     6  C    0.000000
     7  H    1.082658   0.000000
     8  H    2.113849   3.078835   0.000000
     9  H    2.113859   2.465810   1.843658   0.000000
    10  H    1.082654   1.843658   2.465784   3.078835   0.000000
 Stoichiometry    C2H6N2
 Framework group  CS[X(C2H6N2)]
 Deg. of freedom    12
 Full point group                 CS      NOp   2
 Largest Abelian subgroup         CS      NOp   2
 Largest concise Abelian subgroup CS      NOp   2
                         Standard orientation:                         
 ---------------------------------------------------------------------
 Center     Atomic      Atomic             Coordinates (Angstroms)
 Number     Number       Type             X           Y           Z
 ---------------------------------------------------------------------
      1          7           0       -0.000005    1.488087    0.604533
      2          7           0       -0.000005    1.488087   -0.604533
      3          1           0        0.000080    0.494252   -0.986797
      4          1           0        0.000080    0.494252    0.986797
      5          6           0       -0.000005   -1.348636   -0.668391
      6          6           0       -0.000005   -1.348636    0.668391
      7          1           0       -0.921838   -1.409425    1.232905
      8          1           0        0.921819   -1.409623   -1.232892
      9          1           0       -0.921838   -1.409425   -1.232905
     10          1           0        0.921819   -1.409623    1.232892
 ---------------------------------------------------------------------
 Rotational constants (GHZ):          15.5629438           4.3110862           3.5378386
 Leave Link  202 at Thu Apr  6 18:52:46 2023, MaxMem=  6174015488 cpu:               3.5 elap:               0.2
 (Enter /sw/group/lms/sw/g16_B01/g16/l301.exe)
 Standard basis: May-CC-pVTZ (5D, 7F)
 Ernie: Thresh=  0.10000D-02 Tol=  0.10000D-05 Strict=F.
 Ernie:  12 primitive shells out of 160 were deleted.
 There are   123 symmetry adapted cartesian basis functions of A'  symmetry.
 There are   123 symmetry adapted cartesian basis functions of A"  symmetry.
 There are   110 symmetry adapted basis functions of A'  symmetry.
 There are   110 symmetry adapted basis functions of A"  symmetry.
   220 basis functions,   326 primitive gaussians,   246 cartesian basis functions
    16 alpha electrons       16 beta electrons
       nuclear repulsion energy       112.5052859821 Hartrees.
 IExCor= 4336 DFT=T Ex+Corr=M062X ExCW=0 ScaHFX=  0.540000
 ScaDFX=  1.000000  1.000000  1.000000  1.000000 ScalE2=  1.000000  1.000000
 IRadAn=      5 IRanWt=     -1 IRanGd=            0 ICorTp=0 IEmpDi=  4
 NAtoms=   10 NActive=   10 NUniq=    5 SFac= 4.00D+00 NAtFMM=   60 NAOKFM=F Big=F
 Integral buffers will be    131072 words long.
 Raffenetti 2 integral format.
 Two-electron integral symmetry is turned on.
 Leave Link  301 at Thu Apr  6 18:52:46 2023, MaxMem=  6174015488 cpu:               2.0 elap:               0.1
 (Enter /sw/group/lms/sw/g16_B01/g16/l302.exe)
 NPDir=0 NMtPBC=     1 NCelOv=     1 NCel=       1 NClECP=     1 NCelD=      1
         NCelK=      1 NCelE2=     1 NClLst=     1 CellRange=     0.0.
 One-electron integrals computed using PRISM.
 One-electron integral symmetry used in STVInt
 NBasis=   220 RedAO= T EigKep=  1.23D-04  NBF=   110   110
 NBsUse=   220 1.00D-06 EigRej= -1.00D+00 NBFU=   110   110
 Precomputing XC quadrature grid using
 IXCGrd= 4 IRadAn=           5 IRanWt=          -1 IRanGd=           0 AccXCQ= 0.00D+00.
 Generated NRdTot=       0 NPtTot=           0 NUsed=           0 NTot=          32
 NSgBfM=   246   246   246   246   246 MxSgAt=    10 MxSgA2=    10.
 Leave Link  302 at Thu Apr  6 18:52:46 2023, MaxMem=  6174015488 cpu:               8.0 elap:               0.4
 (Enter /sw/group/lms/sw/g16_B01/g16/l303.exe)
 DipDrv:  MaxL=1.
 Leave Link  303 at Thu Apr  6 18:52:47 2023, MaxMem=  6174015488 cpu:               1.7 elap:               0.2
 (Enter /sw/group/lms/sw/g16_B01/g16/l401.exe)
 ExpMin= 3.57D-02 ExpMax= 1.14D+04 ExpMxC= 3.89D+02 IAcc=3 IRadAn=         5 AccDes= 0.00D+00
 Harris functional with IExCor= 1009 and IRadAn=       5 diagonalized for initial guess.
 HarFok:  IExCor= 1009 AccDes= 0.00D+00 IRadAn=         5 IDoV= 1 UseB2=F ITyADJ=14
 ICtDFT=  3500011 ScaDFX=  1.000000  1.000000  1.000000  1.000000
 FoFCou: FMM=F IPFlag=           0 FMFlag=      100000 FMFlg1=           0
         NFxFlg=           0 DoJE=T BraDBF=F KetDBF=T FulRan=T
         wScrn=  0.000000 ICntrl=       500 IOpCl=  0 I1Cent=   200000004 NGrid=           0
         NMat0=    1 NMatS0=      1 NMatT0=    0 NMatD0=    1 NMtDS0=    0 NMtDT0=    0
 Petite list used in FoFCou.
 Harris En= -189.134775493263    
 JPrj=0 DoOrth=F DoCkMO=F.
 Initial guess orbital symmetries:
       Occupied  (A') (A") (A') (A") (A') (A') (A") (A") (A') (A')
                 (A') (A") (A') (A') (A') (A")
       Virtual   (A") (A") (A') (A") (A') (A') (A') (A") (A') (A")
                 (A') (A') (A") (A') (A") (A') (A') (A") (A") (A")
                 (A") (A') (A") (A") (A') (A') (A") (A") (A') (A')
                 (A') (A') (A") (A") (A') (A") (A') (A") (A') (A")
                 (A') (A") (A') (A") (A') (A") (A') (A") (A') (A")
                 (A") (A') (A") (A') (A") (A') (A') (A') (A") (A')
                 (A") (A') (A") (A') (A") (A") (A') (A') (A") (A')
                 (A") (A") (A') (A') (A") (A') (A") (A") (A') (A")
                 (A") (A") (A') (A") (A") (A") (A') (A') (A') (A')
                 (A') (A') (A') (A") (A") (A') (A") (A') (A') (A')
                 (A") (A') (A") (A") (A") (A') (A') (A") (A') (A")
                 (A') (A") (A") (A") (A') (A") (A") (A') (A') (A")
                 (A') (A') (A') (A') (A") (A') (A") (A') (A") (A")
                 (A') (A') (A') (A") (A") (A") (A') (A") (A') (A')
                 (A') (A') (A") (A") (A') (A") (A') (A') (A") (A')
                 (A") (A') (A") (A') (A") (A') (A") (A") (A") (A')
                 (A") (A") (A') (A") (A') (A") (A") (A") (A') (A')
                 (A") (A') (A') (A') (A') (A") (A") (A") (A") (A')
                 (A") (A") (A') (A') (A') (A") (A') (A") (A") (A")
                 (A') (A") (A') (A') (A") (A") (A") (A") (A") (A")
                 (A') (A') (A") (A")
 The electronic state of the initial guess is 1-A'.
 Leave Link  401 at Thu Apr  6 18:52:47 2023, MaxMem=  6174015488 cpu:               8.1 elap:               0.3
 (Enter /sw/group/lms/sw/g16_B01/g16/l502.exe)
 Keep R1 ints in memory in symmetry-blocked form, NReq=443311505.
 FoFCou: FMM=F IPFlag=           0 FMFlag=           0 FMFlg1=           0
         NFxFlg=           0 DoJE=F BraDBF=F KetDBF=F FulRan=T
         wScrn=  0.000000 ICntrl=       600 IOpCl=  0 I1Cent=           0 NGrid=           0
         NMat0=    1 NMatS0=  24310 NMatT0=    0 NMatD0=    1 NMtDS0=    0 NMtDT0=    0
 Petite list used in FoFCou.
 Closed shell SCF:
 Using DIIS extrapolation, IDIIS=  1040.
 NGot=  6174015488 LenX=  6026075413 LenY=  6026014456
 Requested convergence on RMS density matrix=1.00D-08 within 128 cycles.
 Requested convergence on MAX density matrix=1.00D-06.
 Requested convergence on             energy=1.00D-06.
 No special actions if energy rises.

 Cycle   1  Pass 1  IDiag  1:
 E= -189.080358454974    
 DIIS: error= 4.20D-02 at cycle   1 NSaved=   1.
 NSaved= 1 IEnMin= 1 EnMin= -189.080358454974     IErMin= 1 ErrMin= 4.20D-02
 ErrMax= 4.20D-02  0.00D+00 EMaxC= 1.00D-01 BMatC= 1.49D-01 BMatP= 1.49D-01
 IDIUse=3 WtCom= 5.80D-01 WtEn= 4.20D-01
 Coeff-Com:  0.100D+01
 Coeff-En:   0.100D+01
 Coeff:      0.100D+01
 Gap=     0.292 Goal=   None    Shift=    0.000
 GapD=    0.292 DampG=1.000 DampE=0.500 DampFc=0.5000 IDamp=-1.
 Damping current iteration by 5.00D-01
 RMSDP=2.03D-03 MaxDP=5.85D-02              OVMax= 1.70D-01

 Cycle   2  Pass 1  IDiag  1:
 E= -189.145197208260     Delta-E=       -0.064838753285 Rises=F Damp=T
 DIIS: error= 5.49D-03 at cycle   2 NSaved=   2.
 NSaved= 2 IEnMin= 2 EnMin= -189.145197208260     IErMin= 2 ErrMin= 5.49D-03
 ErrMax= 5.49D-03  0.00D+00 EMaxC= 1.00D-01 BMatC= 1.19D-02 BMatP= 1.49D-01
 IDIUse=3 WtCom= 9.45D-01 WtEn= 5.49D-02
 Coeff-Com: -0.164D+00 0.116D+01
 Coeff-En:   0.000D+00 0.100D+01
 Coeff:     -0.155D+00 0.115D+01
 Gap=     0.305 Goal=   None    Shift=    0.000
 RMSDP=6.96D-04 MaxDP=1.61D-02 DE=-6.48D-02 OVMax= 9.72D-02

 Cycle   3  Pass 1  IDiag  1:
 E= -189.203687926269     Delta-E=       -0.058490718009 Rises=F Damp=F
 DIIS: error= 3.68D-03 at cycle   3 NSaved=   3.
 NSaved= 3 IEnMin= 3 EnMin= -189.203687926269     IErMin= 3 ErrMin= 3.68D-03
 ErrMax= 3.68D-03  0.00D+00 EMaxC= 1.00D-01 BMatC= 1.46D-03 BMatP= 1.19D-02
 IDIUse=3 WtCom= 9.63D-01 WtEn= 3.68D-02
 Coeff-Com: -0.862D-01 0.284D+00 0.802D+00
 Coeff-En:   0.000D+00 0.000D+00 0.100D+01
 Coeff:     -0.830D-01 0.274D+00 0.809D+00
 Gap=     0.317 Goal=   None    Shift=    0.000
 RMSDP=2.00D-04 MaxDP=4.38D-03 DE=-5.85D-02 OVMax= 2.65D-02

 Cycle   4  Pass 1  IDiag  1:
 E= -189.204921673826     Delta-E=       -0.001233747557 Rises=F Damp=F
 DIIS: error= 1.50D-03 at cycle   4 NSaved=   4.
 NSaved= 4 IEnMin= 4 EnMin= -189.204921673826     IErMin= 4 ErrMin= 1.50D-03
 ErrMax= 1.50D-03  0.00D+00 EMaxC= 1.00D-01 BMatC= 3.75D-04 BMatP= 1.46D-03
 IDIUse=3 WtCom= 9.85D-01 WtEn= 1.50D-02
 Coeff-Com: -0.315D-01 0.695D-01 0.394D+00 0.568D+00
 Coeff-En:   0.000D+00 0.000D+00 0.745D-01 0.926D+00
 Coeff:     -0.310D-01 0.684D-01 0.389D+00 0.573D+00
 Gap=     0.307 Goal=   None    Shift=    0.000
 RMSDP=9.49D-05 MaxDP=2.72D-03 DE=-1.23D-03 OVMax= 5.96D-03

 Cycle   5  Pass 1  IDiag  1:
 E= -189.205253321895     Delta-E=       -0.000331648069 Rises=F Damp=F
 DIIS: error= 2.52D-04 at cycle   5 NSaved=   5.
 NSaved= 5 IEnMin= 5 EnMin= -189.205253321895     IErMin= 5 ErrMin= 2.52D-04
 ErrMax= 2.52D-04  0.00D+00 EMaxC= 1.00D-01 BMatC= 3.14D-06 BMatP= 3.75D-04
 IDIUse=3 WtCom= 9.97D-01 WtEn= 2.52D-03
 Coeff-Com: -0.516D-03-0.196D-02 0.223D-01 0.656D-01 0.915D+00
 Coeff-En:   0.000D+00 0.000D+00 0.000D+00 0.000D+00 0.100D+01
 Coeff:     -0.515D-03-0.196D-02 0.223D-01 0.655D-01 0.915D+00
 Gap=     0.307 Goal=   None    Shift=    0.000
 RMSDP=1.74D-05 MaxDP=3.73D-04 DE=-3.32D-04 OVMax= 2.32D-03

 Cycle   6  Pass 1  IDiag  1:
 E= -189.205261007058     Delta-E=       -0.000007685162 Rises=F Damp=F
 DIIS: error= 7.28D-05 at cycle   6 NSaved=   6.
 NSaved= 6 IEnMin= 6 EnMin= -189.205261007058     IErMin= 6 ErrMin= 7.28D-05
 ErrMax= 7.28D-05  0.00D+00 EMaxC= 1.00D-01 BMatC= 4.38D-07 BMatP= 3.14D-06
 IDIUse=1 WtCom= 1.00D+00 WtEn= 0.00D+00
 Coeff-Com:  0.234D-02-0.528D-02-0.310D-01-0.642D-01 0.294D-02 0.110D+01
 Coeff:      0.234D-02-0.528D-02-0.310D-01-0.642D-01 0.294D-02 0.110D+01
 Gap=     0.307 Goal=   None    Shift=    0.000
 RMSDP=8.43D-06 MaxDP=1.88D-04 DE=-7.69D-06 OVMax= 8.84D-04

 Cycle   7  Pass 1  IDiag  1:
 E= -189.205262215075     Delta-E=       -0.000001208017 Rises=F Damp=F
 DIIS: error= 1.30D-05 at cycle   7 NSaved=   7.
 NSaved= 7 IEnMin= 7 EnMin= -189.205262215075     IErMin= 7 ErrMin= 1.30D-05
 ErrMax= 1.30D-05  0.00D+00 EMaxC= 1.00D-01 BMatC= 2.16D-08 BMatP= 4.38D-07
 IDIUse=1 WtCom= 1.00D+00 WtEn= 0.00D+00
 Coeff-Com:  0.115D-03-0.187D-03-0.328D-02-0.108D-01-0.378D-01 0.721D-01
 Coeff-Com:  0.980D+00
 Coeff:      0.115D-03-0.187D-03-0.328D-02-0.108D-01-0.378D-01 0.721D-01
 Coeff:      0.980D+00
 Gap=     0.307 Goal=   None    Shift=    0.000
 RMSDP=1.41D-06 MaxDP=2.99D-05 DE=-1.21D-06 OVMax= 1.62D-04

 Cycle   8  Pass 1  IDiag  1:
 E= -189.205262257900     Delta-E=       -0.000000042825 Rises=F Damp=F
 DIIS: error= 5.37D-06 at cycle   8 NSaved=   8.
 NSaved= 8 IEnMin= 8 EnMin= -189.205262257900     IErMin= 8 ErrMin= 5.37D-06
 ErrMax= 5.37D-06  0.00D+00 EMaxC= 1.00D-01 BMatC= 1.89D-09 BMatP= 2.16D-08
 IDIUse=1 WtCom= 1.00D+00 WtEn= 0.00D+00
 Coeff-Com: -0.223D-03 0.511D-03 0.253D-02 0.394D-02-0.227D-02-0.904D-01
 Coeff-Com:  0.195D+00 0.891D+00
 Coeff:     -0.223D-03 0.511D-03 0.253D-02 0.394D-02-0.227D-02-0.904D-01
 Coeff:      0.195D+00 0.891D+00
 Gap=     0.307 Goal=   None    Shift=    0.000
 RMSDP=3.07D-07 MaxDP=6.17D-06 DE=-4.28D-08 OVMax= 2.63D-05

 Cycle   9  Pass 1  IDiag  1:
 E= -189.205262260494     Delta-E=       -0.000000002594 Rises=F Damp=F
 DIIS: error= 3.51D-07 at cycle   9 NSaved=   9.
 NSaved= 9 IEnMin= 9 EnMin= -189.205262260494     IErMin= 9 ErrMin= 3.51D-07
 ErrMax= 3.51D-07  0.00D+00 EMaxC= 1.00D-01 BMatC= 1.95D-11 BMatP= 1.89D-09
 IDIUse=1 WtCom= 1.00D+00 WtEn= 0.00D+00
 Coeff-Com:  0.177D-04-0.372D-04-0.887D-04-0.476D-04 0.126D-02 0.173D-02
 Coeff-Com: -0.325D-01-0.428D-01 0.107D+01
 Coeff:      0.177D-04-0.372D-04-0.887D-04-0.476D-04 0.126D-02 0.173D-02
 Coeff:     -0.325D-01-0.428D-01 0.107D+01
 Gap=     0.307 Goal=   None    Shift=    0.000
 RMSDP=5.99D-08 MaxDP=1.59D-06 DE=-2.59D-09 OVMax= 4.79D-06

 Cycle  10  Pass 1  IDiag  1:
 E= -189.205262260537     Delta-E=       -0.000000000043 Rises=F Damp=F
 DIIS: error= 4.88D-08 at cycle  10 NSaved=  10.
 NSaved=10 IEnMin=10 EnMin= -189.205262260537     IErMin=10 ErrMin= 4.88D-08
 ErrMax= 4.88D-08  0.00D+00 EMaxC= 1.00D-01 BMatC= 3.93D-13 BMatP= 1.95D-11
 IDIUse=1 WtCom= 1.00D+00 WtEn= 0.00D+00
 Coeff-Com:  0.282D-05-0.671D-05-0.257D-04-0.343D-04 0.146D-03 0.598D-03
 Coeff-Com: -0.276D-02-0.125D-01 0.148D-01 0.100D+01
 Coeff:      0.282D-05-0.671D-05-0.257D-04-0.343D-04 0.146D-03 0.598D-03
 Coeff:     -0.276D-02-0.125D-01 0.148D-01 0.100D+01
 Gap=     0.307 Goal=   None    Shift=    0.000
 RMSDP=1.05D-08 MaxDP=3.88D-07 DE=-4.26D-11 OVMax= 6.62D-07

 Cycle  11  Pass 1  IDiag  1:
 E= -189.205262260538     Delta-E=       -0.000000000001 Rises=F Damp=F
 DIIS: error= 1.43D-08 at cycle  11 NSaved=  11.
 NSaved=11 IEnMin=11 EnMin= -189.205262260538     IErMin=11 ErrMin= 1.43D-08
 ErrMax= 1.43D-08  0.00D+00 EMaxC= 1.00D-01 BMatC= 2.56D-14 BMatP= 3.93D-13
 IDIUse=1 WtCom= 1.00D+00 WtEn= 0.00D+00
 Coeff-Com: -0.572D-06 0.106D-05 0.217D-05 0.332D-05-0.647D-05-0.322D-04
 Coeff-Com:  0.883D-03 0.372D-03-0.406D-01 0.120D+00 0.919D+00
 Coeff:     -0.572D-06 0.106D-05 0.217D-05 0.332D-05-0.647D-05-0.322D-04
 Coeff:      0.883D-03 0.372D-03-0.406D-01 0.120D+00 0.919D+00
 Gap=     0.307 Goal=   None    Shift=    0.000
 RMSDP=2.98D-09 MaxDP=1.07D-07 DE=-1.19D-12 OVMax= 1.39D-07

 SCF Done:  E(RM062X) =  -189.205262261     A.U. after   11 cycles
            NFock= 11  Conv=0.30D-08     -V/T= 2.0056
 KE= 1.881603791403D+02 PE=-6.649065645834D+02 EE= 1.750356372004D+02
 Leave Link  502 at Thu Apr  6 18:52:52 2023, MaxMem=  6174015488 cpu:             100.4 elap:               4.8
 (Enter /sw/group/lms/sw/g16_B01/g16/l801.exe)
 DoSCS=F DFT=T ScalE2(SS,OS)=  1.000000  1.000000
 Range of M.O.s used for correlation:     1   220
 NBasis=   220 NAE=    16 NBE=    16 NFC=     0 NFV=     0
 NROrb=    220 NOA=    16 NOB=    16 NVA=   204 NVB=   204

 **** Warning!!: The largest alpha MO coefficient is  0.24255028D+02

 Leave Link  801 at Thu Apr  6 18:52:52 2023, MaxMem=  6174015488 cpu:               2.0 elap:               0.1
 (Enter /sw/group/lms/sw/g16_B01/g16/l1101.exe)
 Using compressed storage, NAtomX=    10.
 Will process     11 centers per pass.
 Leave Link 1101 at Thu Apr  6 18:52:53 2023, MaxMem=  6174015488 cpu:               6.3 elap:               0.3
 (Enter /sw/group/lms/sw/g16_B01/g16/l1102.exe)
 Symmetrizing basis deriv contribution to polar:
 IMax=3 JMax=2 DiffMx= 0.00D+00
 Leave Link 1102 at Thu Apr  6 18:52:53 2023, MaxMem=  6174015488 cpu:               1.6 elap:               0.1
 (Enter /sw/group/lms/sw/g16_B01/g16/l1110.exe)
 Forming Gx(P) for the SCF density, NAtomX=    10.
 Integral derivatives from FoFJK, PRISM(SPDF).
 Do as many integral derivatives as possible in FoFJK.
 G2DrvN: MDV=    6174014572.
 G2DrvN: will do    11 centers at a time, making    1 passes.
 Calling FoFCou, ICntrl=  3107 FMM=F I1Cent=   0 AccDes= 0.00D+00.
 FoFJK:  IHMeth= 1 ICntrl=    3107 DoSepK=F KAlg= 0 I1Cent=           0 FoldK=F
 IRaf=         0 NMat=       1 IRICut=       1 DoRegI=T DoRafI=F ISym2E= 1 IDoP0=0 IntGTp=1.
 FoFCou: FMM=F IPFlag=           0 FMFlag=      100000 FMFlg1=           0
         NFxFlg=           0 DoJE=F BraDBF=F KetDBF=F FulRan=T
         wScrn=  0.000000 ICntrl=      3107 IOpCl=  0 I1Cent=           0 NGrid=           0
         NMat0=    1 NMatS0=      1 NMatT0=    0 NMatD0=    1 NMtDS0=    0 NMtDT0=    0
 Petite list used in FoFCou.
 End of G2Drv F.D. properties file   721 does not exist.
 End of G2Drv F.D. properties file   722 does not exist.
 End of G2Drv F.D. properties file   788 does not exist.
 Leave Link 1110 at Thu Apr  6 18:53:00 2023, MaxMem=  6174015488 cpu:             184.6 elap:               6.6
 (Enter /sw/group/lms/sw/g16_B01/g16/l1002.exe)
 Minotr:  Closed shell wavefunction.
          IDoAtm=1111111111
          Direct CPHF calculation.
          Differentiating once with respect to electric field.
                with respect to dipole field.
          Differentiating once with respect to nuclear coordinates.
          Using symmetry in CPHF.
          Requested convergence is 1.0D-08 RMS, and 1.0D-07 maximum.
          Secondary convergence is 1.0D-12 RMS, and 1.0D-12 maximum.
          NewPWx=T KeepS1=F KeepF1=F KeepIn=T MapXYZ=F SortEE=F KeepMc=T.
         3051 words used for storage of precomputed grid.
 Keep R1 ints in memory in symmetry-blocked form, NReq=443316270.
 FoFCou: FMM=F IPFlag=           0 FMFlag=           0 FMFlg1=           0
         NFxFlg=           0 DoJE=F BraDBF=F KetDBF=F FulRan=T
         wScrn=  0.000000 ICntrl=       600 IOpCl=  0 I1Cent=           0 NGrid=           0
         NMat0=    1 NMatS0=  24310 NMatT0=    0 NMatD0=    1 NMtDS0=    0 NMtDT0=    0
 Petite list used in FoFCou.
          MDV=    6174015488 using IRadAn=       1.
          Solving linear equations simultaneously, MaxMat=       0.
          There are    18 degrees of freedom in the 1st order CPHF.  IDoFFX=4 NUNeed=    18.
     18 vectors produced by pass  0 Test12= 1.81D-14 5.56D-09 XBig12= 3.37D+01 4.29D+00.
 AX will form    18 AO Fock derivatives at one time.
     18 vectors produced by pass  1 Test12= 1.81D-14 5.56D-09 XBig12= 8.21D+00 8.95D-01.
     18 vectors produced by pass  2 Test12= 1.81D-14 5.56D-09 XBig12= 4.90D-01 1.72D-01.
     18 vectors produced by pass  3 Test12= 1.81D-14 5.56D-09 XBig12= 8.69D-03 2.30D-02.
     18 vectors produced by pass  4 Test12= 1.81D-14 5.56D-09 XBig12= 8.17D-05 1.36D-03.
     18 vectors produced by pass  5 Test12= 1.81D-14 5.56D-09 XBig12= 7.12D-07 1.30D-04.
     16 vectors produced by pass  6 Test12= 1.81D-14 5.56D-09 XBig12= 5.12D-09 1.22D-05.
      7 vectors produced by pass  7 Test12= 1.81D-14 5.56D-09 XBig12= 3.45D-11 7.96D-07.
      3 vectors produced by pass  8 Test12= 1.81D-14 5.56D-09 XBig12= 1.72D-13 5.65D-08.
 InvSVY:  IOpt=1 It=  1 EMax= 2.66D-15
 Solved reduced A of dimension   134 with    18 vectors.
 FullF1:  Do perturbations      1 to      18.
 Isotropic polarizability for W=    0.000000       46.30 Bohr**3.
 End of Minotr F.D. properties file   721 does not exist.
 End of Minotr F.D. properties file   722 does not exist.
 End of Minotr F.D. properties file   788 does not exist.
 Leave Link 1002 at Thu Apr  6 18:53:17 2023, MaxMem=  6174015488 cpu:             479.2 elap:              17.1
 (Enter /sw/group/lms/sw/g16_B01/g16/l601.exe)
 Copying SCF densities to generalized density rwf, IOpCl= 0 IROHF=0.

 **********************************************************************

            Population analysis using the SCF Density.

 **********************************************************************

 Orbital symmetries:
       Occupied  (A') (A") (A') (A") (A') (A') (A") (A") (A') (A')
                 (A') (A') (A') (A") (A') (A")
       Virtual   (A") (A") (A") (A') (A') (A') (A") (A') (A") (A')
                 (A') (A") (A') (A") (A") (A') (A') (A") (A') (A")
                 (A') (A") (A") (A") (A') (A') (A") (A') (A") (A')
                 (A') (A') (A") (A') (A") (A') (A") (A") (A') (A")
                 (A') (A") (A') (A") (A') (A") (A') (A") (A") (A')
                 (A") (A") (A') (A") (A') (A') (A') (A") (A') (A')
                 (A") (A") (A') (A') (A") (A") (A') (A') (A') (A")
                 (A") (A") (A') (A') (A") (A') (A") (A") (A") (A')
                 (A") (A") (A') (A") (A") (A") (A') (A') (A') (A')
                 (A') (A') (A') (A") (A") (A") (A') (A') (A') (A')
                 (A") (A") (A') (A") (A') (A") (A') (A') (A") (A")
                 (A') (A") (A") (A') (A") (A") (A") (A') (A') (A")
                 (A') (A') (A') (A') (A") (A") (A') (A') (A") (A")
                 (A') (A') (A') (A") (A') (A") (A") (A') (A") (A')
                 (A') (A') (A") (A") (A') (A") (A') (A") (A') (A")
                 (A') (A') (A') (A") (A") (A") (A") (A') (A") (A')
                 (A") (A") (A') (A') (A") (A") (A") (A") (A') (A')
                 (A") (A') (A') (A') (A') (A") (A") (A") (A") (A')
                 (A") (A") (A') (A') (A') (A') (A") (A") (A") (A")
                 (A') (A") (A') (A") (A') (A") (A") (A") (A") (A")
                 (A') (A') (A") (A")
 The electronic state is 1-A'.
 Alpha  occ. eigenvalues --  -14.80863 -14.80760 -10.56363 -10.56253  -1.16227
 Alpha  occ. eigenvalues --   -0.89149  -0.76281  -0.68717  -0.64310  -0.56870
 Alpha  occ. eigenvalues --   -0.51141  -0.47312  -0.46672  -0.44395  -0.36065
 Alpha  occ. eigenvalues --   -0.30995
 Alpha virt. eigenvalues --   -0.00297   0.00129   0.01299   0.01785   0.02641
 Alpha virt. eigenvalues --    0.04075   0.06184   0.06233   0.07197   0.09318
 Alpha virt. eigenvalues --    0.09685   0.10669   0.12963   0.14067   0.15178
 Alpha virt. eigenvalues --    0.16806   0.17371   0.17650   0.19705   0.23205
 Alpha virt. eigenvalues --    0.24014   0.26395   0.27385   0.31794   0.34054
 Alpha virt. eigenvalues --    0.34145   0.35259   0.40715   0.45766   0.45945
 Alpha virt. eigenvalues --    0.46405   0.49054   0.49718   0.55144   0.55701
 Alpha virt. eigenvalues --    0.56662   0.56835   0.60402   0.61502   0.62544
 Alpha virt. eigenvalues --    0.62616   0.65880   0.66725   0.68829   0.70794
 Alpha virt. eigenvalues --    0.71187   0.73798   0.75189   0.77904   0.79003
 Alpha virt. eigenvalues --    0.87930   0.89003   0.89898   0.99702   1.00840
 Alpha virt. eigenvalues --    1.01178   1.06426   1.07926   1.09818   1.10463
 Alpha virt. eigenvalues --    1.12111   1.16981   1.17723   1.18052   1.20097
 Alpha virt. eigenvalues --    1.23890   1.28363   1.34746   1.36033   1.36203
 Alpha virt. eigenvalues --    1.41033   1.42974   1.45090   1.53098   1.55820
 Alpha virt. eigenvalues --    1.60099   1.62931   1.66403   1.69181   1.71247
 Alpha virt. eigenvalues --    1.74540   1.77048   1.79054   1.79214   1.98043
 Alpha virt. eigenvalues --    2.09066   2.21978   2.32124   2.33101   2.34128
 Alpha virt. eigenvalues --    2.44086   2.48849   2.51807   2.51924   2.58403
 Alpha virt. eigenvalues --    2.60994   2.65268   2.72946   2.78926   2.79548
 Alpha virt. eigenvalues --    2.81240   2.81377   2.84258   2.85844   2.91288
 Alpha virt. eigenvalues --    2.93072   2.97382   2.98633   2.98834   3.04088
 Alpha virt. eigenvalues --    3.07091   3.09892   3.11660   3.12202   3.13248
 Alpha virt. eigenvalues --    3.19603   3.20537   3.23400   3.27129   3.28351
 Alpha virt. eigenvalues --    3.28781   3.31836   3.35453   3.39450   3.40362
 Alpha virt. eigenvalues --    3.43421   3.44395   3.47313   3.49099   3.56105
 Alpha virt. eigenvalues --    3.60939   3.63930   3.65832   3.66439   3.70019
 Alpha virt. eigenvalues --    3.70482   3.71291   3.77164   3.78228   3.80934
 Alpha virt. eigenvalues --    3.83767   3.84465   3.86148   3.91772   3.93277
 Alpha virt. eigenvalues --    3.93293   3.96284   3.96546   3.96604   4.04200
 Alpha virt. eigenvalues --    4.06120   4.10497   4.10794   4.11326   4.17907
 Alpha virt. eigenvalues --    4.18518   4.22447   4.25984   4.27757   4.41851
 Alpha virt. eigenvalues --    4.43243   4.47464   4.53141   4.55286   4.56667
 Alpha virt. eigenvalues --    4.58348   4.62492   4.63373   4.63852   4.73656
 Alpha virt. eigenvalues --    4.79140   4.83204   4.85104   4.89490   4.93273
 Alpha virt. eigenvalues --    4.95421   4.96129   4.99427   4.99657   5.10589
 Alpha virt. eigenvalues --    5.12318   5.13578   5.19783   5.30694   5.32101
 Alpha virt. eigenvalues --    5.46066   5.49615   5.51386   5.56255   5.62063
 Alpha virt. eigenvalues --    5.79996   5.83073   5.85716   5.96938   5.97178
 Alpha virt. eigenvalues --    5.97525   6.11446   6.32265   6.37327   6.93464
 Alpha virt. eigenvalues --    9.44991  11.53314  14.35327  14.79546
          Condensed to atoms (all electrons):
               1          2          3          4          5          6
     1  N    6.798043   0.201084   0.062116   0.129972   0.002375  -0.064682
     2  N    0.201084   6.798043   0.129972   0.062116  -0.064682   0.002375
     3  H    0.062116   0.129972   0.711812  -0.089350   0.103643  -0.049923
     4  H    0.129972   0.062116  -0.089350   0.711812  -0.049923   0.103643
     5  C    0.002375  -0.064682   0.103643  -0.049923   5.151600   0.490776
     6  C   -0.064682   0.002375  -0.049923   0.103643   0.490776   5.151600
     7  H    0.002639  -0.001802   0.002502  -0.010712  -0.044661   0.406366
     8  H   -0.001801   0.002638  -0.010709   0.002501   0.406375  -0.044668
     9  H   -0.001802   0.002639  -0.010712   0.002502   0.406366  -0.044661
    10  H    0.002638  -0.001801   0.002501  -0.010709  -0.044668   0.406375
               7          8          9         10
     1  N    0.002639  -0.001801  -0.001802   0.002638
     2  N   -0.001802   0.002638   0.002639  -0.001801
     3  H    0.002502  -0.010709  -0.010712   0.002501
     4  H   -0.010712   0.002501   0.002502  -0.010709
     5  C   -0.044661   0.406375   0.406366  -0.044668
     6  C    0.406366  -0.044668  -0.044661   0.406375
     7  H    0.502934   0.003068  -0.003841  -0.026310
     8  H    0.003068   0.502926  -0.026310  -0.003841
     9  H   -0.003841  -0.026310   0.502934   0.003068
    10  H   -0.026310  -0.003841   0.003068   0.502926
 Mulliken charges:
               1
     1  N   -0.130583
     2  N   -0.130583
     3  H    0.148149
     4  H    0.148149
     5  C   -0.357202
     6  C   -0.357202
     7  H    0.169817
     8  H    0.169820
     9  H    0.169817
    10  H    0.169820
 Sum of Mulliken charges =  -0.00000
 Mulliken charges with hydrogens summed into heavy atoms:
               1
     1  N    0.017566
     2  N    0.017566
     5  C   -0.017566
     6  C   -0.017566
 APT charges:
               1
     1  N   -0.148322
     2  N   -0.148322
     3  H    0.066872
     4  H    0.066872
     5  C    0.010195
     6  C    0.010195
     7  H    0.035624
     8  H    0.035631
     9  H    0.035624
    10  H    0.035631
 Sum of APT charges =  -0.00000
 APT charges with hydrogens summed into heavy atoms:
               1
     1  N   -0.081450
     2  N   -0.081450
     5  C    0.081450
     6  C    0.081450
 Electronic spatial extent (au):  <R**2>=            359.1753
 Charge=             -0.0000 electrons
 Dipole moment (field-independent basis, Debye):
    X=              0.0002    Y=             -3.0045    Z=              0.0000  Tot=              3.0045
 Quadrupole moment (field-independent basis, Debye-Ang):
   XX=            -24.3681   YY=            -34.2375   ZZ=            -25.0282
   XY=             -0.0000   XZ=              0.0000   YZ=             -0.0000
 Traceless Quadrupole moment (field-independent basis, Debye-Ang):
   XX=              3.5098   YY=             -6.3596   ZZ=              2.8497
   XY=             -0.0000   XZ=              0.0000   YZ=             -0.0000
 Octapole moment (field-independent basis, Debye-Ang**2):
  XXX=              0.0001  YYY=             -5.9200  ZZZ=             -0.0000  XYY=              0.0015
  XXY=             -1.0676  XXZ=              0.0000  XZZ=              0.0002  YZZ=             -5.2327
  YYZ=             -0.0000  XYZ=             -0.0000
 Hexadecapole moment (field-independent basis, Debye-Ang**3):
 XXXX=            -37.7872 YYYY=           -386.0596 ZZZZ=           -114.2661 XXXY=              0.0003
 XXXZ=             -0.0000 YYYX=             -0.0009 YYYZ=              0.0000 ZZZX=             -0.0000
 ZZZY=              0.0000 XXYY=            -59.9271 XXZZ=            -22.2484 YYZZ=            -81.9361
 XXYZ=             -0.0000 YYXZ=              0.0000 ZZXY=              0.0002
 N-N= 1.125052859821D+02 E-N=-6.649065643798D+02  KE= 1.881603791403D+02
 Symmetry A'   KE= 9.995235818071D+01
 Symmetry A"   KE= 8.820802095962D+01
  Exact polarizability:  32.678  -0.001  56.839   0.000  -0.000  49.372
 Approx polarizability:  39.104  -0.001  62.635   0.000   0.000  68.090
 No NMR shielding tensors so no spin-rotation constants.
 Leave Link  601 at Thu Apr  6 18:53:18 2023, MaxMem=  6174015488 cpu:              11.3 elap:               0.5
 (Enter /sw/group/lms/sw/g16_B01/g16/l701.exe)
 ... and contract with generalized density number  0.
 Compute integral second derivatives.
 Leave Link  701 at Thu Apr  6 18:53:18 2023, MaxMem=  6174015488 cpu:               6.5 elap:               0.3
 (Enter /sw/group/lms/sw/g16_B01/g16/l702.exe)
 L702 exits ... SP integral derivatives will be done elsewhere.
 Leave Link  702 at Thu Apr  6 18:53:19 2023, MaxMem=  6174015488 cpu:               1.3 elap:               0.1
 (Enter /sw/group/lms/sw/g16_B01/g16/l703.exe)
 Integral derivatives from FoFJK, PRISM(SPDF).
 Compute integral second derivatives, UseDBF=F ICtDFT=           0.
 Calling FoFJK, ICntrl=    100127 FMM=F ISym2X=1 I1Cent= 0 IOpClX= 0 NMat=1 NMatS=1 NMatT=0.
 FoFJK:  IHMeth= 1 ICntrl=  100127 DoSepK=F KAlg= 0 I1Cent=           0 FoldK=F
 IRaf=         0 NMat=       1 IRICut=       1 DoRegI=T DoRafI=F ISym2E= 1 IDoP0=0 IntGTp=1.
 FoFCou: FMM=F IPFlag=           0 FMFlag=      100000 FMFlg1=         800
         NFxFlg=           0 DoJE=F BraDBF=F KetDBF=F FulRan=T
         wScrn=  0.000000 ICntrl=    100127 IOpCl=  0 I1Cent=           0 NGrid=           0
         NMat0=    1 NMatS0=      1 NMatT0=    0 NMatD0=    1 NMtDS0=    0 NMtDT0=    0
 Petite list used in FoFCou.
 Leave Link  703 at Thu Apr  6 18:53:34 2023, MaxMem=  6174015488 cpu:             428.4 elap:              15.3
 (Enter /sw/group/lms/sw/g16_B01/g16/l716.exe)
 Dipole        = 7.45981200D-05-1.18204935D+00 5.63692311D-16
 Polarizability= 3.26781128D+01-6.99650668D-04 5.68389145D+01
                 6.03001454D-08-4.42164664D-08 4.93723588D+01
 Full mass-weighted force constant matrix:
 Low frequencies ---  -55.3299  -49.5071  -16.6974    0.0010    0.0010    0.0013
 Low frequencies ---  135.3153  174.3857  274.7816
 Diagonal vibrational polarizability:
       17.2158100      11.8636410       1.4994309
 Harmonic frequencies (cm**-1), IR intensities (KM/Mole), Raman scattering
 activities (A**4/AMU), depolarization ratios for plane and unpolarized
 incident light, reduced masses (AMU), force constants (mDyne/A),
 and normal coordinates:
                           1         2         3         4         5
                          A"        A'        A'        A"        A"
       Frequencies ---    -4.3857  135.2790  274.7596  298.3438  403.7915
    Reduced masses ---     6.5936    3.0460    1.0485    2.8495    3.1422
   Force constants ---     0.1181    0.0328    0.0466    0.1494    0.3019
    IR Intensities ---    10.1360    0.0000   33.3018    0.1866    4.8310
 Coord Atom Element:
   1     1     7          0.00003   0.23975  -0.03701   0.00003  -0.00000
   2     1     7         -0.31696  -0.00000  -0.00004   0.05330   0.26924
   3     1     7         -0.02316   0.00001  -0.00000  -0.06921   0.05291
   1     2     7          0.00003  -0.23975  -0.03701  -0.00003   0.00000
   2     2     7         -0.31696   0.00000  -0.00004  -0.05330  -0.26924
   3     2     7          0.02316   0.00001   0.00000  -0.06921   0.05291
   1     3     1         -0.00026  -0.37699   0.36228  -0.00004   0.00001
   2     3     1         -0.40553   0.00000  -0.00000  -0.08560  -0.41273
   3     3     1          0.02085  -0.00002  -0.00000   0.02912   0.47541
   1     4     1         -0.00026   0.37699   0.36228   0.00004  -0.00001
   2     4     1         -0.40553  -0.00000  -0.00000   0.08560   0.41273
   3     4     1         -0.02085  -0.00002   0.00000   0.02912   0.47541
   1     5     6         -0.00001   0.15734   0.01522   0.00002  -0.00001
   2     5     6          0.36651  -0.00003   0.00004   0.26424  -0.02432
   3     5     6         -0.01876  -0.00001  -0.00000   0.07020  -0.08651
   1     6     6         -0.00001  -0.15734   0.01522  -0.00002   0.00001
   2     6     6          0.36651   0.00003   0.00004  -0.26424   0.02432
   3     6     6          0.01876  -0.00001   0.00000   0.07020  -0.08651
   1     7     1          0.00386  -0.29515  -0.01454  -0.00012  -0.00160
   2     7     1          0.22245   0.04761   0.42824  -0.44986   0.04464
   3     7     1          0.00895  -0.22011  -0.00225   0.04833  -0.09022
   1     8     1         -0.00387   0.29516  -0.01463  -0.00003  -0.00162
   2     8     1          0.22306   0.04748  -0.42817   0.44988  -0.04464
   3     8     1         -0.00895   0.22009  -0.00225   0.04832  -0.09023
   1     9     1          0.00386   0.29515  -0.01454   0.00012   0.00160
   2     9     1          0.22245  -0.04761   0.42824   0.44986  -0.04464
   3     9     1         -0.00895  -0.22011   0.00225   0.04833  -0.09022
   1    10     1         -0.00387  -0.29516  -0.01463   0.00003   0.00162
   2    10     1          0.22306  -0.04748  -0.42817  -0.44988   0.04464
   3    10     1          0.00895   0.22009   0.00225   0.04832  -0.09023
                           6         7         8         9        10
                          A'        A'        A'        A"        A"
       Frequencies ---   642.6673  828.4178  949.7625  993.3724 1061.5673
    Reduced masses ---     1.0351    1.0408    1.1192    1.4503    1.0314
   Force constants ---     0.2519    0.4209    0.5948    0.8432    0.6848
    IR Intensities ---    81.7547    0.2119   17.8954    1.6462    0.0000
 Coord Atom Element:
   1     1     7         -0.01615   0.00006   0.00000  -0.00000  -0.02078
   2     1     7         -0.00001  -0.00000  -0.01989  -0.00340  -0.00000
   3     1     7          0.00000  -0.00000   0.01393   0.00186   0.00000
   1     2     7         -0.01615   0.00006   0.00000   0.00000   0.02078
   2     2     7         -0.00001  -0.00000  -0.01989   0.00340   0.00000
   3     2     7         -0.00000   0.00000  -0.01393   0.00186   0.00000
   1     3     1          0.60378  -0.00745  -0.00007  -0.00001  -0.10346
   2     3     1          0.00006  -0.00000   0.05018  -0.01832  -0.00001
   3     3     1         -0.00001   0.00000  -0.01358  -0.00115  -0.00000
   1     4     1          0.60378  -0.00745  -0.00007   0.00001   0.10346
   2     4     1          0.00006  -0.00000   0.05018   0.01832   0.00001
   3     4     1          0.00001  -0.00000   0.01358  -0.00115  -0.00000
   1     5     6         -0.03052  -0.03876  -0.00001   0.00002  -0.02369
   2     5     6         -0.00000   0.00000  -0.06416   0.14142   0.00000
   3     5     6          0.00000  -0.00000   0.01595  -0.01047  -0.00000
   1     6     6         -0.03052  -0.03876  -0.00001  -0.00002   0.02369
   2     6     6         -0.00000   0.00000  -0.06416  -0.14142  -0.00000
   3     6     6         -0.00000   0.00000  -0.01595  -0.01047  -0.00000
   1     7     1         -0.00803   0.23406  -0.00707  -0.00470  -0.02697
   2     7     1         -0.25885   0.02165   0.49508   0.48707   0.49266
   3     7     1          0.00612   0.44042   0.03207   0.05000  -0.02682
   1     8     1         -0.00797   0.23405   0.00718  -0.00481   0.02708
   2     8     1          0.25894  -0.02170   0.49505  -0.48709   0.49263
   3     8     1          0.00612   0.44042  -0.03208   0.05000   0.02683
   1     9     1         -0.00803   0.23406  -0.00707   0.00470   0.02697
   2     9     1         -0.25885   0.02165   0.49508  -0.48707  -0.49266
   3     9     1         -0.00612  -0.44042  -0.03207   0.05000  -0.02682
   1    10     1         -0.00797   0.23405   0.00718   0.00481  -0.02708
   2    10     1          0.25894  -0.02170   0.49505   0.48709  -0.49263
   3    10     1         -0.00612  -0.44042   0.03208   0.05000   0.02683
                          11        12        13        14        15
                          A"        A"        A'        A'        A"
       Frequencies ---  1237.5815 1305.2396 1344.5339 1407.9826 1469.3909
    Reduced masses ---     1.4951    1.1640    1.2874    1.0424    1.1131
   Force constants ---     1.3492    1.1684    1.3713    1.2176    1.4160
    IR Intensities ---     0.0000    0.0000    1.5982   52.1411    7.0441
 Coord Atom Element:
   1     1     7         -0.01216   0.07678   0.00000  -0.00000  -0.00000
   2     1     7         -0.00000   0.00001  -0.01665   0.01867   0.00595
   3     1     7          0.00000   0.00000   0.01098   0.01083   0.00228
   1     2     7          0.01216  -0.07678   0.00000  -0.00000   0.00000
   2     2     7          0.00000  -0.00001  -0.01665   0.01867  -0.00595
   3     2     7          0.00000   0.00000  -0.01098  -0.01083   0.00228
   1     3     1         -0.10336   0.68401  -0.00003   0.00003  -0.00001
   2     3     1         -0.00001   0.00006   0.15292  -0.24119   0.01114
   3     3     1         -0.00000  -0.00001  -0.29530   0.59750  -0.02893
   1     4     1          0.10336  -0.68401  -0.00003   0.00003   0.00001
   2     4     1          0.00001  -0.00006   0.15292  -0.24119  -0.01114
   3     4     1         -0.00000  -0.00001   0.29530  -0.59750  -0.02893
   1     5     6          0.14829   0.01166   0.00000  -0.00000  -0.00000
   2     5     6         -0.00002  -0.00000   0.00819  -0.00554  -0.00532
   3     5     6          0.00000  -0.00000   0.11037   0.03150  -0.06864
   1     6     6         -0.14829  -0.01166   0.00000  -0.00000   0.00000
   2     6     6          0.00002   0.00000   0.00819  -0.00554   0.00532
   3     6     6          0.00000  -0.00000  -0.11037  -0.03150  -0.06864
   1     7     1          0.13455   0.01091  -0.15825  -0.08556   0.28252
   2     7     1          0.06046   0.10111  -0.00953   0.02388  -0.03826
   3     7     1          0.46025   0.05207  -0.40404  -0.18379   0.40724
   1     8     1         -0.13453  -0.01088   0.15825   0.08556   0.28252
   2     8     1          0.06050   0.10109  -0.00957   0.02386   0.03820
   3     8     1         -0.46025  -0.05206   0.40404   0.18379   0.40725
   1     9     1         -0.13455  -0.01091  -0.15825  -0.08556  -0.28252
   2     9     1         -0.06046  -0.10111  -0.00953   0.02388   0.03826
   3     9     1          0.46025   0.05207   0.40404   0.18379   0.40724
   1    10     1          0.13453   0.01088   0.15825   0.08556  -0.28252
   2    10     1         -0.06050  -0.10109  -0.00957   0.02386  -0.03820
   3    10     1         -0.46025  -0.05206  -0.40404  -0.18379   0.40725
                          16        17        18        19        20
                          A"        A'        A'        A'        A"
       Frequencies ---  1536.1511 1651.6790 1767.3776 2678.2142 2934.1191
    Reduced masses ---     1.3227    2.6728   11.8538    1.0802    1.0609
   Force constants ---     1.8390    4.2961   21.8155    4.5651    5.3812
    IR Intensities ---    43.8889   48.8243   90.7663   95.5681    2.3627
 Coord Atom Element:
   1     1     7          0.00001   0.00000   0.00000   0.00000  -0.00000
   2     1     7         -0.09970  -0.00814  -0.01937  -0.04966   0.04024
   3     1     7         -0.04630   0.07728   0.62506  -0.00740  -0.02044
   1     2     7         -0.00001   0.00000   0.00000   0.00000   0.00000
   2     2     7          0.09970  -0.00814  -0.01937  -0.04966  -0.04024
   3     2     7         -0.04630  -0.07728  -0.62506   0.00740  -0.02044
   1     3     1          0.00003  -0.00001  -0.00003  -0.00006  -0.00005
   2     3     1         -0.21823   0.02974   0.05016   0.63792   0.64807
   3     3     1          0.66241   0.10875  -0.08681   0.29502   0.27813
   1     4     1         -0.00003  -0.00001  -0.00003  -0.00006   0.00005
   2     4     1          0.21823   0.02974   0.05016   0.63792  -0.64807
   3     4     1          0.66241  -0.10875   0.08681  -0.29502   0.27813
   1     5     6         -0.00000   0.00000   0.00000   0.00000   0.00000
   2     5     6         -0.00321   0.01809   0.03074   0.00966   0.00223
   3     5     6         -0.00526   0.26128  -0.17340  -0.01481  -0.00065
   1     6     6          0.00000   0.00000   0.00000   0.00000  -0.00000
   2     6     6          0.00321   0.01809   0.03074   0.00966  -0.00223
   3     6     6         -0.00526  -0.26128   0.17340   0.01481  -0.00065
   1     7     1          0.01554   0.35846  -0.16181  -0.02140  -0.01243
   2     7     1         -0.00414  -0.06601  -0.07351  -0.03148   0.01025
   3     7     1          0.02174   0.27107  -0.04844   0.01192   0.00684
   1     8     1          0.01554  -0.35847   0.16179   0.02139  -0.01244
   2     8     1          0.00413  -0.06593  -0.07353  -0.03148  -0.01024
   3     8     1          0.02174  -0.27107   0.04844  -0.01192   0.00684
   1     9     1         -0.01554   0.35846  -0.16181  -0.02140   0.01243
   2     9     1          0.00414  -0.06601  -0.07351  -0.03148  -0.01025
   3     9     1          0.02174  -0.27107   0.04844  -0.01192   0.00684
   1    10     1         -0.01554  -0.35847   0.16179   0.02139   0.01244
   2    10     1         -0.00413  -0.06593  -0.07353  -0.03148   0.01024
   3    10     1          0.02174   0.27107  -0.04844   0.01192   0.00684
                          21        22        23        24
                          A"        A'        A"        A'
       Frequencies ---  3153.5565 3167.0576 3232.5434 3256.9827
    Reduced masses ---     1.0479    1.0718    1.1161    1.1178
   Force constants ---     6.1402    6.3339    6.8713    6.9863
    IR Intensities ---     1.8663    2.3293    0.0000    3.7055
 Coord Atom Element:
   1     1     7          0.00000   0.00000  -0.00029   0.00004
   2     1     7          0.00064  -0.00153   0.00000   0.00000
   3     1     7         -0.00059   0.00091  -0.00000  -0.00000
   1     2     7         -0.00000   0.00000   0.00029   0.00004
   2     2     7         -0.00064  -0.00153  -0.00000   0.00000
   3     2     7         -0.00059  -0.00091  -0.00000   0.00000
   1     3     1         -0.00000  -0.00000  -0.00297  -0.00153
   2     3     1          0.01723   0.02227   0.00000  -0.00000
   3     3     1          0.00748   0.00680   0.00000  -0.00000
   1     4     1          0.00000  -0.00000   0.00297  -0.00153
   2     4     1         -0.01723   0.02227  -0.00000  -0.00000
   3     4     1          0.00748  -0.00680   0.00000   0.00000
   1     5     6          0.00001  -0.00001  -0.07018  -0.07073
   2     5     6          0.00457  -0.00473   0.00001   0.00001
   3     5     6          0.04246  -0.05370   0.00001   0.00001
   1     6     6         -0.00001  -0.00001   0.07018  -0.07073
   2     6     6         -0.00457  -0.00473  -0.00001   0.00001
   3     6     6          0.04246   0.05370   0.00001  -0.00001
   1     7     1          0.42954   0.42796  -0.42215   0.42154
   2     7     1          0.02797   0.02758  -0.02936   0.02856
   3     7     1         -0.25241  -0.25385   0.26147  -0.26250
   1     8     1          0.42939  -0.42782   0.42231   0.42168
   2     8     1         -0.02805   0.02766  -0.02946  -0.02866
   3     8     1         -0.25231   0.25376  -0.26156  -0.26258
   1     9     1         -0.42954   0.42796   0.42215   0.42154
   2     9     1         -0.02797   0.02758   0.02936   0.02856
   3     9     1         -0.25241   0.25385   0.26147   0.26250
   1    10     1         -0.42939  -0.42782  -0.42231   0.42168
   2    10     1          0.02805   0.02766   0.02946  -0.02866
   3    10     1         -0.25231  -0.25376  -0.26156   0.26258
 Harmonic frequencies (cm**-1), IR intensities (KM/Mole), Raman scattering
 activities (A**4/AMU), depolarization ratios for plane and unpolarized
 incident light, reduced masses (AMU), force constants (mDyne/A),
 and normal coordinates:
                      1                      2                      3
                     A"                     A'                     A'
 Frequencies --    135.2790               174.3857               274.7596
 Red. masses --      3.0460                 6.5936                 1.0485
 Frc consts  --      0.0328                 0.1181                 0.0466
 IR Inten    --      0.0000                10.1360                33.3018
  Atom  AN      X      Y      Z        X      Y      Z        X      Y      Z
     1   7     0.24  -0.00   0.00     0.00  -0.32  -0.02    -0.04  -0.00  -0.00
     2   7    -0.24   0.00   0.00     0.00  -0.32   0.02    -0.04  -0.00   0.00
     3   1    -0.38   0.00  -0.00    -0.00  -0.41   0.02     0.36  -0.00  -0.00
     4   1     0.38  -0.00  -0.00    -0.00  -0.41  -0.02     0.36  -0.00   0.00
     5   6     0.16  -0.00  -0.00    -0.00   0.37  -0.02     0.02   0.00  -0.00
     6   6    -0.16   0.00  -0.00    -0.00   0.37   0.02     0.02   0.00   0.00
     7   1    -0.30   0.05  -0.22     0.00   0.22   0.01    -0.01   0.43  -0.00
     8   1     0.30   0.05   0.22    -0.00   0.22  -0.01    -0.01  -0.43  -0.00
     9   1     0.30  -0.05  -0.22     0.00   0.22  -0.01    -0.01   0.43   0.00
    10   1    -0.30  -0.05   0.22    -0.00   0.22   0.01    -0.01  -0.43   0.00
                      4                      5                      6
                     A"                     A"                     A'
 Frequencies --    298.3438               403.7915               642.6673
 Red. masses --      2.8495                 3.1422                 1.0351
 Frc consts  --      0.1494                 0.3019                 0.2519
 IR Inten    --      0.1866                 4.8310                81.7547
  Atom  AN      X      Y      Z        X      Y      Z        X      Y      Z
     1   7     0.00   0.05  -0.07    -0.00   0.27   0.05    -0.02  -0.00   0.00
     2   7    -0.00  -0.05  -0.07     0.00  -0.27   0.05    -0.02  -0.00  -0.00
     3   1    -0.00  -0.09   0.03     0.00  -0.41   0.48     0.60   0.00  -0.00
     4   1     0.00   0.09   0.03    -0.00   0.41   0.48     0.60   0.00   0.00
     5   6     0.00   0.26   0.07    -0.00  -0.02  -0.09    -0.03  -0.00   0.00
     6   6    -0.00  -0.26   0.07     0.00   0.02  -0.09    -0.03  -0.00  -0.00
     7   1    -0.00  -0.45   0.05    -0.00   0.04  -0.09    -0.01  -0.26   0.01
     8   1    -0.00   0.45   0.05    -0.00  -0.04  -0.09    -0.01   0.26   0.01
     9   1     0.00   0.45   0.05     0.00  -0.04  -0.09    -0.01  -0.26  -0.01
    10   1     0.00  -0.45   0.05     0.00   0.04  -0.09    -0.01   0.26  -0.01
                      7                      8                      9
                     A'                     A'                     A"
 Frequencies --    828.4178               949.7625               993.3724
 Red. masses --      1.0408                 1.1192                 1.4503
 Frc consts  --      0.4209                 0.5948                 0.8432
 IR Inten    --      0.2119                17.8954                 1.6462
  Atom  AN      X      Y      Z        X      Y      Z        X      Y      Z
     1   7     0.00  -0.00  -0.00     0.00  -0.02   0.01    -0.00  -0.00   0.00
     2   7     0.00  -0.00   0.00     0.00  -0.02  -0.01     0.00   0.00   0.00
     3   1    -0.01  -0.00   0.00    -0.00   0.05  -0.01    -0.00  -0.02  -0.00
     4   1    -0.01  -0.00  -0.00    -0.00   0.05   0.01     0.00   0.02  -0.00
     5   6    -0.04   0.00  -0.00    -0.00  -0.06   0.02     0.00   0.14  -0.01
     6   6    -0.04   0.00   0.00    -0.00  -0.06  -0.02    -0.00  -0.14  -0.01
     7   1     0.23   0.02   0.44    -0.01   0.50   0.03    -0.00   0.49   0.05
     8   1     0.23  -0.02   0.44     0.01   0.50  -0.03    -0.00  -0.49   0.05
     9   1     0.23   0.02  -0.44    -0.01   0.50  -0.03     0.00  -0.49   0.05
    10   1     0.23  -0.02  -0.44     0.01   0.50   0.03     0.00   0.49   0.05
                     10                     11                     12
                     A"                     A"                     A"
 Frequencies --   1061.5673              1237.5815              1305.2396
 Red. masses --      1.0314                 1.4951                 1.1640
 Frc consts  --      0.6848                 1.3492                 1.1684
 IR Inten    --      0.0000                 0.0000                 0.0000
  Atom  AN      X      Y      Z        X      Y      Z        X      Y      Z
     1   7    -0.02  -0.00   0.00    -0.01  -0.00   0.00     0.08   0.00   0.00
     2   7     0.02   0.00   0.00     0.01   0.00   0.00    -0.08  -0.00   0.00
     3   1    -0.10  -0.00  -0.00    -0.10  -0.00  -0.00     0.68   0.00  -0.00
     4   1     0.10   0.00  -0.00     0.10   0.00  -0.00    -0.68  -0.00  -0.00
     5   6    -0.02   0.00  -0.00     0.15  -0.00   0.00     0.01  -0.00  -0.00
     6   6     0.02  -0.00  -0.00    -0.15   0.00   0.00    -0.01   0.00  -0.00
     7   1    -0.03   0.49  -0.03     0.13   0.06   0.46     0.01   0.10   0.05
     8   1     0.03   0.49   0.03    -0.13   0.06  -0.46    -0.01   0.10  -0.05
     9   1     0.03  -0.49  -0.03    -0.13  -0.06   0.46    -0.01  -0.10   0.05
    10   1    -0.03  -0.49   0.03     0.13  -0.06  -0.46     0.01  -0.10  -0.05
                     13                     14                     15
                     A'                     A'                     A"
 Frequencies --   1344.5339              1407.9826              1469.3909
 Red. masses --      1.2874                 1.0424                 1.1131
 Frc consts  --      1.3713                 1.2176                 1.4160
 IR Inten    --      1.5982                52.1411                 7.0441
  Atom  AN      X      Y      Z        X      Y      Z        X      Y      Z
     1   7     0.00  -0.02   0.01    -0.00   0.02   0.01    -0.00   0.01   0.00
     2   7     0.00  -0.02  -0.01    -0.00   0.02  -0.01     0.00  -0.01   0.00
     3   1    -0.00   0.15  -0.30     0.00  -0.24   0.60    -0.00   0.01  -0.03
     4   1    -0.00   0.15   0.30     0.00  -0.24  -0.60     0.00  -0.01  -0.03
     5   6     0.00   0.01   0.11    -0.00  -0.01   0.03    -0.00  -0.01  -0.07
     6   6     0.00   0.01  -0.11    -0.00  -0.01  -0.03     0.00   0.01  -0.07
     7   1    -0.16  -0.01  -0.40    -0.09   0.02  -0.18     0.28  -0.04   0.41
     8   1     0.16  -0.01   0.40     0.09   0.02   0.18     0.28   0.04   0.41
     9   1    -0.16  -0.01   0.40    -0.09   0.02   0.18    -0.28   0.04   0.41
    10   1     0.16  -0.01  -0.40     0.09   0.02  -0.18    -0.28  -0.04   0.41
                     16                     17                     18
                     A"                     A'                     A'
 Frequencies --   1536.1511              1651.6790              1767.3776
 Red. masses --      1.3227                 2.6728                11.8538
 Frc consts  --      1.8390                 4.2961                21.8155
 IR Inten    --     43.8889                48.8243                90.7663
  Atom  AN      X      Y      Z        X      Y      Z        X      Y      Z
     1   7     0.00  -0.10  -0.05     0.00  -0.01   0.08     0.00  -0.02   0.63
     2   7    -0.00   0.10  -0.05     0.00  -0.01  -0.08     0.00  -0.02  -0.63
     3   1     0.00  -0.22   0.66    -0.00   0.03   0.11    -0.00   0.05  -0.09
     4   1    -0.00   0.22   0.66    -0.00   0.03  -0.11    -0.00   0.05   0.09
     5   6    -0.00  -0.00  -0.01     0.00   0.02   0.26     0.00   0.03  -0.17
     6   6     0.00   0.00  -0.01     0.00   0.02  -0.26     0.00   0.03   0.17
     7   1     0.02  -0.00   0.02     0.36  -0.07   0.27    -0.16  -0.07  -0.05
     8   1     0.02   0.00   0.02    -0.36  -0.07  -0.27     0.16  -0.07   0.05
     9   1    -0.02   0.00   0.02     0.36  -0.07  -0.27    -0.16  -0.07   0.05
    10   1    -0.02  -0.00   0.02    -0.36  -0.07   0.27     0.16  -0.07  -0.05
                     19                     20                     21
                     A'                     A"                     A"
 Frequencies --   2678.2142              2934.1191              3153.5565
 Red. masses --      1.0802                 1.0609                 1.0479
 Frc consts  --      4.5651                 5.3812                 6.1402
 IR Inten    --     95.5681                 2.3627                 1.8663
  Atom  AN      X      Y      Z        X      Y      Z        X      Y      Z
     1   7     0.00  -0.05  -0.01    -0.00   0.04  -0.02     0.00   0.00  -0.00
     2   7     0.00  -0.05   0.01     0.00  -0.04  -0.02    -0.00  -0.00  -0.00
     3   1    -0.00   0.64   0.30    -0.00   0.65   0.28    -0.00   0.02   0.01
     4   1    -0.00   0.64  -0.30     0.00  -0.65   0.28     0.00  -0.02   0.01
     5   6     0.00   0.01  -0.01     0.00   0.00  -0.00     0.00   0.00   0.04
     6   6     0.00   0.01   0.01    -0.00  -0.00  -0.00    -0.00  -0.00   0.04
     7   1    -0.02  -0.03   0.01    -0.01   0.01   0.01     0.43   0.03  -0.25
     8   1     0.02  -0.03  -0.01    -0.01  -0.01   0.01     0.43  -0.03  -0.25
     9   1    -0.02  -0.03  -0.01     0.01  -0.01   0.01    -0.43  -0.03  -0.25
    10   1     0.02  -0.03   0.01     0.01   0.01   0.01    -0.43   0.03  -0.25
                     22                     23                     24
                     A'                     A"                     A'
 Frequencies --   3167.0576              3232.5434              3256.9827
 Red. masses --      1.0718                 1.1161                 1.1178
 Frc consts  --      6.3339                 6.8713                 6.9863
 IR Inten    --      2.3293                 0.0000                 3.7055
  Atom  AN      X      Y      Z        X      Y      Z        X      Y      Z
     1   7     0.00  -0.00   0.00    -0.00   0.00  -0.00     0.00   0.00  -0.00
     2   7     0.00  -0.00  -0.00     0.00  -0.00  -0.00     0.00   0.00   0.00
     3   1    -0.00   0.02   0.01    -0.00   0.00   0.00    -0.00  -0.00  -0.00
     4   1    -0.00   0.02  -0.01     0.00  -0.00   0.00    -0.00  -0.00   0.00
     5   6    -0.00  -0.00  -0.05    -0.07   0.00   0.00    -0.07   0.00   0.00
     6   6    -0.00  -0.00   0.05     0.07  -0.00   0.00    -0.07   0.00  -0.00
     7   1     0.43   0.03  -0.25    -0.42  -0.03   0.26     0.42   0.03  -0.26
     8   1    -0.43   0.03   0.25     0.42  -0.03  -0.26     0.42  -0.03  -0.26
     9   1     0.43   0.03   0.25     0.42   0.03   0.26     0.42   0.03   0.26
    10   1    -0.43   0.03  -0.25    -0.42   0.03  -0.26     0.42  -0.03   0.26

 -------------------
 - Thermochemistry -
 -------------------
 Temperature   298.150 Kelvin.  Pressure   1.00000 Atm.
 Atom     1 has atomic number  7 and mass  14.00307
 Atom     2 has atomic number  7 and mass  14.00307
 Atom     3 has atomic number  1 and mass   1.00783
 Atom     4 has atomic number  1 and mass   1.00783
 Atom     5 has atomic number  6 and mass  12.00000
 Atom     6 has atomic number  6 and mass  12.00000
 Atom     7 has atomic number  1 and mass   1.00783
 Atom     8 has atomic number  1 and mass   1.00783
 Atom     9 has atomic number  1 and mass   1.00783
 Atom    10 has atomic number  1 and mass   1.00783
 Molecular mass:    58.05310 amu.
 Principal axes and moments of inertia in atomic units:
                           1         2         3
     Eigenvalues --   115.96400 418.62796 510.12537
           X           -0.00000   0.00000   1.00000
           Y            1.00000   0.00000   0.00000
           Z           -0.00000   1.00000  -0.00000
 This molecule is an asymmetric top.
 Rotational symmetry number  1.
 Rotational temperatures (Kelvin)      0.74690     0.20690     0.16979
 Rotational constants (GHZ):          15.56294     4.31109     3.53784
 Zero-point vibrational energy     214758.1 (Joules/Mol)
                                   51.32843 (Kcal/Mol)
 Warning -- explicit consideration of   5 degrees of freedom as
           vibrations may cause significant error
 Vibrational temperatures:    194.64   250.90   395.32   429.25   580.97
          (Kelvin)            924.65  1191.91  1366.50  1429.24  1527.36
                             1780.60  1877.95  1934.48  2025.77  2114.13
                             2210.18  2376.40  2542.86  3853.35  4221.54
                             4537.26  4556.69  4650.91  4686.07
 
 Zero-point correction=                           0.081797 (Hartree/Particle)
 Thermal correction to Energy=                    0.087457
 Thermal correction to Enthalpy=                  0.088402
 Thermal correction to Gibbs Free Energy=         0.053717
 Sum of electronic and zero-point Energies=           -189.123465
 Sum of electronic and thermal Energies=              -189.117805
 Sum of electronic and thermal Enthalpies=            -189.116861
 Sum of electronic and thermal Free Energies=         -189.151546
 
                     E (Thermal)             CV                S
                      KCal/Mol        Cal/Mol-Kelvin    Cal/Mol-Kelvin
 Total                   54.880             18.076             73.001
 Electronic               0.000              0.000              0.000
 Translational            0.889              2.981             38.097
 Rotational               0.889              2.981             24.719
 Vibrational             53.103             12.114             10.185
 Vibration     1          0.613              1.918              2.870
 Vibration     2          0.627              1.874              2.388
 Vibration     3          0.677              1.720              1.566
 Vibration     4          0.691              1.677              1.426
 Vibration     5          0.769              1.462              0.949
                       Q            Log10(Q)             Ln(Q)
 Total Bot       0.195912D-24        -24.707939        -56.892133
 Total V=0       0.824253D+13         12.916060         29.740328
 Vib (Bot)       0.200036D-36        -36.698891        -84.502319
 Vib (Bot)    1  0.150497D+01          0.177526          0.408770
 Vib (Bot)    2  0.115396D+01          0.062191          0.143199
 Vib (Bot)    3  0.701665D+00         -0.153870         -0.354300
 Vib (Bot)    4  0.638034D+00         -0.195156         -0.449364
 Vib (Bot)    5  0.440178D+00         -0.356372         -0.820576
 Vib (V=0)       0.841606D+01          0.925109          2.130141
 Vib (V=0)    1  0.208585D+01          0.319283          0.735176
 Vib (V=0)    2  0.175763D+01          0.244926          0.563964
 Vib (V=0)    3  0.136159D+01          0.134046          0.308651
 Vib (V=0)    4  0.131061D+01          0.117473          0.270492
 Vib (V=0)    5  0.116615D+01          0.066755          0.153708
 Electronic      0.100000D+01          0.000000          0.000000
 Translational   0.173857D+08          7.240192         16.671158
 Rotational      0.563326D+05          4.750760         10.939029
 
                                         point on IRC for diimide + ethylene with
  NH = 1.065
                                                             IR Spectrum
 
     33  33       2         2                                   1   1    1 1  1 1 1 1      1                                         
     22  11       9         6                                   7   6    5 4  4 3 3 2      0  99    8      6         4   22   11     
     53  65       3         7                                   6   5    3 6  0 4 0 3      6  95    2      4         0   97   73     
     73  74       4         8                                   7   2    6 9  8 5 5 8      2  30    8      3         4   85   45     
 
     X   XX       X         X                                   X   X    X X  X X             XX    X      X         X   XX   X      
                            X                                   X   X    X    X                X           X              X   X      
                            X                                   X   X    X    X                X           X              X          
                            X                                   X   X    X    X                X           X              X          
                            X                                   X   X    X    X                            X              X          
                            X                                   X   X    X    X                            X              X          
                            X                                   X   X    X    X                            X              X          
                            X                                   X   X    X    X                            X                         
                            X                                   X   X    X    X                            X                         
                            X                                   X   X         X                            X                         
                            X                                   X             X                            X                         
                            X                                   X                                          X                         
                            X                                   X                                          X                         
                            X                                   X                                          X                         
                            X                                   X                                          X                         
                            X                                   X                                          X                         
                            X                                   X                                          X                         
                            X                                   X                                                                    
                            X                                   X                                                                    
                            X                                                                                                        
 
 ***** Axes restored to original set *****
 -------------------------------------------------------------------
 Center     Atomic                   Forces (Hartrees/Bohr)
 Number     Number              X              Y              Z
 -------------------------------------------------------------------
      1        7           0.004083900    0.000310224    0.000831198
      2        7           0.004083900   -0.000310224    0.000831198
      3        1           0.000368662   -0.000027146    0.000074531
      4        1           0.000368662    0.000027146    0.000074531
      5        6          -0.004041372    0.000218153   -0.000824043
      6        6          -0.004041372   -0.000218153   -0.000824043
      7        1          -0.000205210   -0.000009339   -0.000045060
      8        1          -0.000205980    0.000007385   -0.000036626
      9        1          -0.000205210    0.000009339   -0.000045060
     10        1          -0.000205980   -0.000007385   -0.000036626
 -------------------------------------------------------------------
 Cartesian Forces:  Max     0.004083900 RMS     0.001522168
 Z-matrix is all fixed cartesians, so copy forces.
 Force constants in Cartesian coordinates: 
                1             2             3             4             5 
      1  0.382024D+00
      2  0.535737D-02  0.871533D+00
      3  0.629821D-01  0.108970D-02  0.850162D-01
      4 -0.119745D+00 -0.266856D-01 -0.100927D-01  0.382024D+00
      5  0.266856D-01 -0.760579D+00  0.542504D-02 -0.535737D-02  0.871533D+00
      6 -0.100927D-01 -0.542504D-02 -0.721495D-01  0.629821D-01 -0.108970D-02
      7  0.125026D-01 -0.591749D-01 -0.562077D-02 -0.241985D+00 -0.355671D-01
      8 -0.471580D-01 -0.600271D-01 -0.958681D-02 -0.256197D-01 -0.466130D-01
      9 -0.561957D-02 -0.120326D-01  0.390061D-01 -0.399783D-01 -0.722775D-02
     10 -0.241985D+00  0.355671D-01 -0.399789D-01  0.125026D-01  0.591749D-01
     11  0.256197D-01 -0.466130D-01  0.520821D-02  0.471580D-01 -0.600271D-01
     12 -0.399783D-01  0.722775D-02 -0.534432D-01 -0.561957D-02  0.120326D-01
     13 -0.138257D-01  0.287282D-01 -0.361083D-02 -0.266201D-01 -0.364168D-01
     14  0.111719D-01 -0.349375D-01  0.227111D-02  0.221858D-01  0.305319D-01
     15 -0.361194D-02  0.584414D-02  0.319783D-02 -0.513177D-02 -0.740839D-02
     16 -0.266201D-01  0.364168D-01 -0.512945D-02 -0.138257D-01 -0.287282D-01
     17 -0.221858D-01  0.305319D-01 -0.451061D-02 -0.111719D-01 -0.349375D-01
     18 -0.513177D-02  0.740839D-02 -0.243546D-02 -0.361194D-02 -0.584414D-02
     19  0.339276D-02 -0.521657D-02  0.622139D-03  0.411037D-03  0.531949D-02
     20  0.216752D-03  0.562236D-03 -0.182212D-03 -0.106009D-03 -0.516574D-03
     21 -0.196844D-03 -0.168198D-03  0.572192D-03  0.435968D-03 -0.227179D-03
     22  0.730632D-03 -0.480672D-02 -0.318274D-03  0.311450D-02  0.486611D-02
     23  0.579697D-04 -0.516563D-03  0.134803D-03 -0.128316D-03  0.562173D-03
     24 -0.635066D-04 -0.228776D-02 -0.466633D-03  0.127659D-02  0.188358D-02
     25  0.411037D-03 -0.531949D-02  0.690681D-03  0.339276D-02  0.521657D-02
     26  0.106009D-03 -0.516574D-03 -0.101503D-03 -0.216752D-03  0.562236D-03
     27  0.435968D-03  0.227179D-03 -0.146713D-03 -0.196844D-03  0.168198D-03
     28  0.311450D-02 -0.486611D-02  0.456043D-03  0.730632D-03  0.480672D-02
     29  0.128316D-03  0.562173D-03  0.252273D-03 -0.579697D-04 -0.516563D-03
     30  0.127659D-02 -0.188358D-02  0.849251D-03 -0.635066D-04  0.228776D-02
                6             7             8             9            10 
      6  0.850162D-01
      7 -0.399789D-01  0.236088D+00
      8 -0.520821D-02  0.794908D-01  0.108335D+00
      9 -0.534432D-01  0.412477D-01  0.161597D-01  0.415647D-01
     10 -0.562077D-02 -0.248681D-01 -0.105428D-01 -0.734326D-03  0.236088D+00
     11  0.958681D-02  0.105428D-01  0.117176D-02  0.214348D-02 -0.794908D-01
     12  0.390061D-01 -0.734326D-03 -0.214348D-02 -0.214144D-01  0.412477D-01
     13 -0.512945D-02  0.234465D-01  0.553806D-02  0.528326D-02  0.131782D-01
     14  0.451061D-02 -0.235419D-01 -0.569816D-02 -0.478731D-02 -0.288175D-01
     15 -0.243546D-02  0.528616D-02  0.112665D-02 -0.146397D-02  0.323554D-02
     16 -0.361083D-02  0.131782D-01  0.429957D-02  0.323490D-02  0.234465D-01
     17 -0.227111D-02  0.288175D-01  0.310896D-02  0.585998D-02  0.235419D-01
     18  0.319783D-02  0.323554D-02  0.874705D-03 -0.206997D-02  0.528616D-02
     19  0.690681D-03 -0.264205D-02 -0.663258D-03 -0.101255D-02 -0.594812D-02
     20  0.101503D-03 -0.115157D-04 -0.194309D-03  0.107601D-03  0.267836D-03
     21 -0.146713D-03  0.103974D-03 -0.496955D-04  0.270801D-04 -0.760089D-03
     22  0.456043D-03 -0.721150D-02 -0.241527D-02  0.222288D-02 -0.256077D-02
     23 -0.252273D-03 -0.319200D-03  0.557017D-04  0.662495D-04 -0.314494D-04
     24  0.849251D-03 -0.157658D-02 -0.194152D-03 -0.443318D-03 -0.120272D-02
     25  0.622139D-03 -0.594812D-02 -0.229956D-02 -0.455837D-02 -0.264205D-02
     26  0.182212D-03 -0.267836D-03  0.558598D-04 -0.185804D-03  0.115157D-04
     27  0.572192D-03 -0.760089D-03 -0.765292D-03 -0.170945D-02  0.103974D-03
     28 -0.318274D-03 -0.256077D-02 -0.629821D-03 -0.856433D-04 -0.721150D-02
     29 -0.134803D-03  0.314494D-04 -0.194310D-03 -0.103593D-03  0.319200D-03
     30 -0.466633D-03 -0.120272D-02 -0.213430D-03 -0.535460D-04 -0.157658D-02
               11            12            13            14            15 
     11  0.108335D+00
     12 -0.161597D-01  0.415647D-01
     13 -0.429957D-02  0.323490D-02  0.138893D+00
     14  0.310896D-02 -0.585998D-02  0.383409D-01  0.828826D+00
     15 -0.874705D-03 -0.206997D-02 -0.103017D+00  0.779964D-02  0.624179D+00
     16 -0.553806D-02  0.528326D-02 -0.601829D-01  0.142448D-01  0.108536D-01
     17 -0.569816D-02  0.478731D-02 -0.142448D-01 -0.536191D+00 -0.289772D-02
     18 -0.112665D-02 -0.146397D-02  0.108536D-01  0.289772D-02 -0.111312D+00
     19  0.229956D-02 -0.455837D-02  0.636582D-02 -0.275342D-02  0.104920D-02
     20  0.558598D-04  0.185804D-03 -0.479115D-02 -0.129832D-01  0.290793D-01
     21  0.765292D-03 -0.170945D-02  0.143121D-03 -0.257638D-02  0.452890D-02
     22  0.629821D-03 -0.856433D-04 -0.496250D-01 -0.387442D-01  0.600274D-01
     23 -0.194310D-03  0.103593D-03 -0.341260D-01 -0.129836D+00  0.117018D+00
     24  0.213430D-03 -0.535460D-04  0.585559D-01  0.120572D+00 -0.253766D+00
     25  0.663258D-03 -0.101255D-02 -0.381442D-01  0.114549D-01  0.315150D-01
     26 -0.194309D-03 -0.107601D-03  0.143173D-01 -0.129837D+00 -0.121047D+00
     27  0.496955D-04  0.270801D-04  0.329864D-01 -0.126123D+00 -0.265239D+00
     28  0.241527D-02  0.222288D-02  0.651416D-02 -0.354115D-02 -0.206285D-03
     29  0.557017D-04 -0.662495D-04  0.695397D-02 -0.129837D-01 -0.286395D-01
     30  0.194152D-03 -0.443318D-03  0.699866D-03  0.129564D-02  0.438031D-02
               16            17            18            19            20 
     16  0.138893D+00
     17 -0.383409D-01  0.828826D+00
     18 -0.103017D+00 -0.779964D-02  0.624179D+00
     19 -0.381442D-01 -0.114549D-01  0.315150D-01  0.321141D-01
     20 -0.143173D-01 -0.129837D+00  0.121047D+00  0.169660D-01  0.136361D+00
     21  0.329864D-01  0.126123D+00 -0.265239D+00 -0.342142D-01 -0.135946D+00
     22  0.651416D-02  0.354115D-02 -0.206285D-03  0.105179D-01  0.962943D-03
     23 -0.695397D-02 -0.129837D-01  0.286395D-01 -0.619023D-03 -0.478660D-02
     24  0.699866D-03 -0.129564D-02  0.438031D-02  0.214146D-02 -0.684122D-03
     25  0.636582D-02  0.275342D-02  0.104920D-02 -0.758248D-02 -0.321359D-03
     26  0.479115D-02 -0.129832D-01 -0.290793D-01  0.321359D-03  0.138777D-02
     27  0.143121D-03  0.257638D-02  0.452890D-02 -0.156842D-02 -0.293211D-03
     28 -0.496250D-01  0.387442D-01  0.600274D-01  0.151521D-02  0.113376D-02
     29  0.341260D-01 -0.129836D+00 -0.117018D+00 -0.419930D-02  0.995143D-02
     30  0.585559D-01 -0.120572D+00 -0.253766D+00  0.533509D-02 -0.134158D-01
               21            22            23            24            25 
     21  0.273869D+00
     22  0.155787D-02  0.444196D-01
     23 -0.100604D-02  0.375103D-01  0.136360D+00
     24  0.180450D-02 -0.632018D-01 -0.131767D+00  0.261570D+00
     25 -0.156842D-02  0.151521D-02  0.419930D-02  0.533509D-02  0.321141D-01
     26  0.293211D-03 -0.113376D-02  0.995143D-02  0.134158D-01 -0.169660D-01
     27  0.906449D-03  0.151219D-02 -0.127924D-01 -0.146131D-01 -0.342142D-01
     28  0.151219D-02 -0.741468D-02  0.410407D-03 -0.196434D-02  0.105179D-01
     29  0.127924D-01 -0.410407D-03  0.138773D-02  0.144254D-03  0.619023D-03
     30 -0.146131D-01 -0.196434D-02 -0.144254D-03  0.738439D-03  0.214146D-02
               26            27            28            29            30 
     26  0.136361D+00
     27  0.135946D+00  0.273869D+00
     28 -0.962943D-03  0.155787D-02  0.444196D-01
     29 -0.478660D-02  0.100604D-02 -0.375103D-01  0.136360D+00
     30  0.684122D-03  0.180450D-02 -0.632018D-01  0.131767D+00  0.261570D+00
 Leave Link  716 at Thu Apr  6 18:53:34 2023, MaxMem=  6174015488 cpu:               2.0 elap:               0.1
 (Enter /sw/group/lms/sw/g16_B01/g16/l103.exe)

 GradGradGradGradGradGradGradGradGradGradGradGradGradGradGradGradGradGrad
 Berny optimization.
 Search for a local minimum.
 Step number   1 out of a maximum of    2
 All quantities printed in internal units (Hartrees-Bohrs-Radians)
 Second derivative matrix not updated -- analytic derivatives used.
 ITU=  0
     Eigenvalues ---    0.00240   0.00364   0.00732   0.00958   0.01765
     Eigenvalues ---    0.01799   0.03033   0.04436   0.06452   0.07671
     Eigenvalues ---    0.08244   0.12847   0.13843   0.18157   0.18528
     Eigenvalues ---    0.27578   0.30898   0.48840   0.53840   0.67426
     Eigenvalues ---    0.75406   0.94893   1.41038   1.65249
 Quadratic step=8.134D-01 exceeds max=3.000D-01 adjusted using Lamda=-1.268D-02.
 Angle between NR and scaled steps=   4.60 degrees.
 Angle between quadratic step and forces=  38.81 degrees.
 ClnCor:  largest displacement from symmetrization is 1.63D-12 for atom     6.
 Linear search not attempted -- first point.
 ClnCor:  largest displacement from symmetrization is 1.26D-15 for atom     8.
 B after Tr=    -0.000150    0.000000   -0.000025
         Rot=    1.000000    0.000000    0.000001    0.000000 Ang=   0.00 deg.
 Variable       Old X    -DE/DX   Delta X   Delta X   Delta X     New X
                                 (Linear)    (Quad)   (Total)
    X1        2.60822   0.00408   0.00000   0.09960   0.09945   2.70767
    Y1        1.14240   0.00031   0.00000   0.00758   0.00758   1.14998
    Z1        0.53044   0.00083   0.00000   0.02027   0.02025   0.55070
    X2        2.60822   0.00408   0.00000   0.09960   0.09945   2.70767
    Y2       -1.14240  -0.00031   0.00000  -0.00758  -0.00758  -1.14998
    Z2        0.53044   0.00083   0.00000   0.02027   0.02025   0.55070
    X3        0.76779   0.00037   0.00000   0.12104   0.12089   0.88867
    Y3       -1.86478  -0.00003   0.00000  -0.00154  -0.00154  -1.86631
    Z3        0.15631   0.00007   0.00000   0.02459   0.02457   0.18088
    X4        0.76779   0.00037   0.00000   0.12104   0.12089   0.88867
    Y4        1.86478   0.00003   0.00000   0.00154   0.00154   1.86631
    Z4        0.15631   0.00007   0.00000   0.02459   0.02457   0.18088
    X5       -2.64487  -0.00404   0.00000  -0.11361  -0.11375  -2.75863
    Y5       -1.26308   0.00022   0.00000   0.00597   0.00597  -1.25711
    Z5       -0.53791  -0.00082   0.00000  -0.02311  -0.02314  -0.56105
    X6       -2.64487  -0.00404   0.00000  -0.11361  -0.11375  -2.75863
    Y6        1.26308  -0.00022   0.00000  -0.00597  -0.00597   1.25711
    Z6       -0.53791  -0.00082   0.00000  -0.02311  -0.02314  -0.56105
    X7       -2.41027  -0.00021   0.00000  -0.05289  -0.05304  -2.46330
    Y7        2.32985  -0.00001   0.00000  -0.00163  -0.00163   2.32822
    Z7       -2.26787  -0.00005   0.00000  -0.01218  -0.01221  -2.28008
    X8       -3.10498  -0.00021   0.00000  -0.05340  -0.05355  -3.15853
    Y8       -2.32983   0.00001   0.00000   0.00161   0.00161  -2.32822
    Z8        1.14617  -0.00004   0.00000  -0.00944  -0.00947   1.13670
    X9       -2.41027  -0.00021   0.00000  -0.05289  -0.05304  -2.46330
    Y9       -2.32985   0.00001   0.00000   0.00163   0.00163  -2.32822
    Z9       -2.26787  -0.00005   0.00000  -0.01218  -0.01221  -2.28008
   X10       -3.10498  -0.00021   0.00000  -0.05340  -0.05355  -3.15853
   Y10        2.32983  -0.00001   0.00000  -0.00161  -0.00161   2.32822
   Z10        1.14617  -0.00004   0.00000  -0.00944  -0.00947   1.13670
         Item               Value     Threshold  Converged?
 Maximum Force            0.004084     0.000450     NO 
 RMS     Force            0.001522     0.000300     NO 
 Maximum Displacement     0.120888     0.001800     NO 
 RMS     Displacement     0.054781     0.001200     NO 
 Predicted change in Energy=-1.545665D-03
 GradGradGradGradGradGradGradGradGradGradGradGradGradGradGradGradGradGrad

 Leave Link  103 at Thu Apr  6 18:53:35 2023, MaxMem=  6174015488 cpu:               1.8 elap:               0.1
 (Enter /sw/group/lms/sw/g16_B01/g16/l9999.exe)

 ----------------------------------------------------------------------

 Electric dipole moment (input orientation):
 (Debye = 10**-18 statcoulomb cm , SI units = C m)
                  (au)            (Debye)         (10**-30 SI)
   Tot        0.118205D+01      0.300447D+01      0.100218D+02
   x         -0.115835D+01     -0.294424D+01     -0.982091D+01
   y          0.000000D+00      0.000000D+00      0.000000D+00
   z         -0.235505D+00     -0.598594D+00     -0.199669D+01

 Dipole polarizability, Alpha (input orientation).
 (esu units = cm**3 , SI units = C**2 m**2 J**-1)
 Alpha(0;0):
               (au)            (10**-24 esu)      (10**-40 SI)
   iso        0.462965D+02      0.686043D+01      0.763326D+01
   aniso      0.214265D+02      0.317508D+01      0.353276D+01
   xx         0.558795D+02      0.828049D+01      0.921329D+01
   yx         0.000000D+00      0.000000D+00      0.000000D+00
   yy         0.493724D+02      0.731623D+01      0.814040D+01
   zx         0.471792D+01      0.699123D+00      0.777879D+00
   zy         0.000000D+00      0.000000D+00      0.000000D+00
   zz         0.336375D+02      0.498456D+01      0.554607D+01

 ----------------------------------------------------------------------

 Dipole orientation:
     7         -0.00016305         -1.14240180         -2.66161170
     7         -0.00016305          1.14240180         -2.66161170
     1         -0.00020376          1.86477607         -0.78353528
     1         -0.00020376         -1.86477607         -0.78353528
     6          0.00017526          1.26307593          2.69901717
     6          0.00017526         -1.26307593          2.69901717
     1          1.74219541         -2.32985279          2.81378252
     1         -1.74181236          2.32982822          2.81437668
     1          1.74219541          2.32985279          2.81378252
     1         -1.74181236         -2.32982822          2.81437668

 Electric dipole moment (dipole orientation):
 (Debye = 10**-18 statcoulomb cm , SI units = C m)
                  (au)            (Debye)         (10**-30 SI)
   Tot        0.118205D+01      0.300447D+01      0.100218D+02
   x          0.000000D+00      0.000000D+00      0.000000D+00
   y          0.000000D+00      0.000000D+00      0.000000D+00
   z          0.118205D+01      0.300447D+01      0.100218D+02

 Dipole polarizability, Alpha (dipole orientation).
 (esu units = cm**3 , SI units = C**2 m**2 J**-1)
 Alpha(0;0):
               (au)            (10**-24 esu)      (10**-40 SI)
   iso        0.462965D+02      0.686043D+01      0.763326D+01
   aniso      0.214265D+02      0.317508D+01      0.353276D+01
   xx         0.326781D+02      0.484240D+01      0.538789D+01
   yx         0.000000D+00      0.000000D+00      0.000000D+00
   yy         0.493724D+02      0.731623D+01      0.814040D+01
   zx         0.825117D-03      0.122270D-03      0.136043D-03
   zy         0.000000D+00      0.000000D+00      0.000000D+00
   zz         0.568389D+02      0.842266D+01      0.937147D+01

 ----------------------------------------------------------------------
 1\1\GINC-TNXT-0464\Freq\RM062X\May-CC-pVTZ\C2H6N2\D-SINGLETON\06-Apr-2
 023\0\\#p M062X/may-cc-pVTZ freq=hpmodes int(grid=ultrafine) scf=tight
 \\point on IRC for diimide + ethylene with NH = 1.065\\0,1\N,1.38021,0
 .604533,0.280699\N,1.38021,-0.604533,0.280699\H,0.406295,-0.986797,0.0
 82714\H,0.406295,0.986797,0.082714\C,-1.399606,-0.668391,-0.284649\C,-
 1.399606,0.668391,-0.284649\H,-1.275458,1.232905,-1.200105\H,-1.643086
 ,-1.232892,0.606528\H,-1.275458,-1.232905,-1.200105\H,-1.643086,1.2328
 92,0.606528\\Version=ES64L-G16RevB.01\State=1-A'\HF=-189.2052623\RMSD=
 2.978e-09\RMSF=1.522e-03\ZeroPoint=0.0817971\Thermal=0.0874574\Dipole=
 -1.1583515,0.,-0.2355048\DipoleDeriv=-0.0245507,-0.0844256,0.0483863,-
 0.901324,-0.1675958,-0.1832828,0.0483955,-0.0171768,-0.2528189,-0.0245
 507,0.0844255,0.0483863,0.9013239,-0.1675957,0.1832828,0.0483955,0.017
 1769,-0.2528189,-0.1455901,-0.0905013,-0.0777453,-0.2187167,0.1251404,
 -0.0444811,-0.0777493,-0.0184028,0.2210643,-0.1455901,0.0905013,-0.077
 7453,0.2187167,0.1251404,0.0444812,-0.0777493,0.0184028,0.2210643,-0.0
 09397,0.0255285,-0.0146565,-0.3321562,-0.0195071,-0.067544,-0.0146486,
 0.0052008,0.0594904,-0.009397,-0.0255285,-0.0146565,0.3321561,-0.01950
 71,0.067544,-0.0146486,-0.0052008,0.0594904,0.0870955,0.0078356,0.0187
 922,0.0073474,0.0309811,0.0251604,0.0377723,0.0472097,-0.0112052,0.092
 4423,-0.0256676,0.0252234,-0.0165983,0.0309813,0.0202885,0.00623,0.040
 3934,-0.0165306,0.0870955,-0.0078356,0.0187922,-0.0073474,0.0309811,-0
 .0251604,0.0377723,-0.0472097,-0.0112052,0.0924422,0.0256676,0.0252234
 ,0.0165983,0.0309813,-0.0202885,0.0062301,-0.0403934,-0.0165307\Polar=
 55.8795456,0.,49.3723588,4.7179161,0.,33.6374816\Quadrupole=-4.436719,
 2.1187035,2.3180155,0.,-1.4330621,0.\PG=CS [X(C2H6N2)]\NImag=0\\0.3820
 2377,0.00535737,0.87153317,0.06298205,0.00108970,0.08501615,-0.1197449
 5,-0.02668563,-0.01009267,0.38202377,0.02668563,-0.76057874,0.00542504
 ,-0.00535737,0.87153317,-0.01009267,-0.00542504,-0.07214949,0.06298205
 ,-0.00108970,0.08501615,0.01250263,-0.05917493,-0.00562077,-0.24198463
 ,-0.03556708,-0.03997893,0.23608784,-0.04715797,-0.06002714,-0.0095868
 1,-0.02561975,-0.04661297,-0.00520821,0.07949075,0.10833462,-0.0056195
 7,-0.01203257,0.03900609,-0.03997831,-0.00722775,-0.05344321,0.0412477
 4,0.01615972,0.04156474,-0.24198463,0.03556708,-0.03997893,0.01250263,
 0.05917493,-0.00562077,-0.02486808,-0.01054276,-0.00073433,0.23608784,
 0.02561975,-0.04661297,0.00520821,0.04715797,-0.06002714,0.00958681,0.
 01054276,0.00117176,0.00214348,-0.07949075,0.10833462,-0.03997831,0.00
 722775,-0.05344321,-0.00561957,0.01203257,0.03900609,-0.00073433,-0.00
 214348,-0.02141444,0.04124774,-0.01615972,0.04156474,-0.01382568,0.028
 72818,-0.00361083,-0.02662007,-0.03641683,-0.00512945,0.02344647,0.005
 53806,0.00528326,0.01317821,-0.00429957,0.00323490,0.13889317,0.011171
 94,-0.03493753,0.00227111,0.02218575,0.03053193,0.00451061,-0.02354193
 ,-0.00569816,-0.00478731,-0.02881752,0.00310896,-0.00585998,0.03834087
 ,0.82882601,-0.00361194,0.00584414,0.00319783,-0.00513177,-0.00740839,
 -0.00243546,0.00528616,0.00112665,-0.00146397,0.00323554,-0.00087471,-
 0.00206997,-0.10301679,0.00779964,0.62417927,-0.02662007,0.03641683,-0
 .00512945,-0.01382568,-0.02872818,-0.00361083,0.01317821,0.00429957,0.
 00323490,0.02344647,-0.00553806,0.00528326,-0.06018289,0.01424479,0.01
 085356,0.13889317,-0.02218575,0.03053193,-0.00451061,-0.01117194,-0.03
 493753,-0.00227111,0.02881752,0.00310896,0.00585998,0.02354193,-0.0056
 9816,0.00478731,-0.01424479,-0.53619127,-0.00289772,-0.03834087,0.8288
 2601,-0.00513177,0.00740839,-0.00243546,-0.00361194,-0.00584414,0.0031
 9783,0.00323554,0.00087471,-0.00206997,0.00528616,-0.00112665,-0.00146
 397,0.01085356,0.00289772,-0.11131200,-0.10301679,-0.00779964,0.624179
 27,0.00339276,-0.00521657,0.00062214,0.00041104,0.00531949,0.00069068,
 -0.00264205,-0.00066326,-0.00101255,-0.00594812,0.00229956,-0.00455837
 ,0.00636582,-0.00275342,0.00104920,-0.03814418,-0.01145486,0.03151496,
 0.03211412,0.00021675,0.00056224,-0.00018221,-0.00010601,-0.00051657,0
 .00010150,-0.00001152,-0.00019431,0.00010760,0.00026784,0.00005586,0.0
 0018580,-0.00479115,-0.01298322,0.02907929,-0.01431728,-0.12983745,0.1
 2104726,0.01696602,0.13636085,-0.00019684,-0.00016820,0.00057219,0.000
 43597,-0.00022718,-0.00014671,0.00010397,-0.00004970,0.00002708,-0.000
 76009,0.00076529,-0.00170945,0.00014312,-0.00257638,0.00452890,0.03298
 641,0.12612272,-0.26523873,-0.03421418,-0.13594613,0.27386891,0.000730
 63,-0.00480672,-0.00031827,0.00311450,0.00486611,0.00045604,-0.0072115
 0,-0.00241527,0.00222288,-0.00256077,0.00062982,-0.00008564,-0.0496250
 1,-0.03874419,0.06002736,0.00651416,0.00354115,-0.00020629,0.01051788,
 0.00096294,0.00155787,0.04441958,0.00005797,-0.00051656,0.00013480,-0.
 00012832,0.00056217,-0.00025227,-0.00031920,0.00005570,0.00006625,-0.0
 0003145,-0.00019431,0.00010359,-0.03412602,-0.12983555,0.11701788,-0.0
 0695397,-0.01298372,0.02863952,-0.00061902,-0.00478660,-0.00100604,0.0
 3751030,0.13635970,-0.00006351,-0.00228776,-0.00046663,0.00127659,0.00
 188358,0.00084925,-0.00157658,-0.00019415,-0.00044332,-0.00120272,0.00
 021343,-0.00005355,0.05855595,0.12057169,-0.25376618,0.00069987,-0.001
 29564,0.00438031,0.00214146,-0.00068412,0.00180450,-0.06320180,-0.1317
 6707,0.26157031,0.00041104,-0.00531949,0.00069068,0.00339276,0.0052165
 7,0.00062214,-0.00594812,-0.00229956,-0.00455837,-0.00264205,0.0006632
 6,-0.00101255,-0.03814418,0.01145486,0.03151496,0.00636582,0.00275342,
 0.00104920,-0.00758248,-0.00032136,-0.00156842,0.00151521,0.00419930,0
 .00533509,0.03211412,0.00010601,-0.00051657,-0.00010150,-0.00021675,0.
 00056224,0.00018221,-0.00026784,0.00005586,-0.00018580,0.00001152,-0.0
 0019431,-0.00010760,0.01431728,-0.12983745,-0.12104726,0.00479115,-0.0
 1298322,-0.02907929,0.00032136,0.00138777,0.00029321,-0.00113376,0.009
 95143,0.01341579,-0.01696602,0.13636085,0.00043597,0.00022718,-0.00014
 671,-0.00019684,0.00016820,0.00057219,-0.00076009,-0.00076529,-0.00170
 945,0.00010397,0.00004970,0.00002708,0.03298641,-0.12612272,-0.2652387
 3,0.00014312,0.00257638,0.00452890,-0.00156842,-0.00029321,0.00090645,
 0.00151219,-0.01279241,-0.01461313,-0.03421418,0.13594613,0.27386891,0
 .00311450,-0.00486611,0.00045604,0.00073063,0.00480672,-0.00031827,-0.
 00256077,-0.00062982,-0.00008564,-0.00721150,0.00241527,0.00222288,0.0
 0651416,-0.00354115,-0.00020629,-0.04962501,0.03874419,0.06002736,0.00
 151521,0.00113376,0.00151219,-0.00741468,0.00041041,-0.00196434,0.0105
 1788,-0.00096294,0.00155787,0.04441958,0.00012832,0.00056217,0.0002522
 7,-0.00005797,-0.00051656,-0.00013480,0.00003145,-0.00019431,-0.000103
 59,0.00031920,0.00005570,-0.00006625,0.00695397,-0.01298372,-0.0286395
 2,0.03412602,-0.12983555,-0.11701788,-0.00419930,0.00995143,0.01279241
 ,-0.00041041,0.00138773,0.00014425,0.00061902,-0.00478660,0.00100604,-
 0.03751030,0.13635970,0.00127659,-0.00188358,0.00084925,-0.00006351,0.
 00228776,-0.00046663,-0.00120272,-0.00021343,-0.00005355,-0.00157658,0
 .00019415,-0.00044332,0.00069987,0.00129564,0.00438031,0.05855595,-0.1
 2057169,-0.25376618,0.00533509,-0.01341579,-0.01461313,-0.00196434,-0.
 00014425,0.00073844,0.00214146,0.00068412,0.00180450,-0.06320180,0.131
 76707,0.26157031\\-0.00408390,-0.00031022,-0.00083120,-0.00408390,0.00
 031022,-0.00083120,-0.00036866,0.00002715,-0.00007453,-0.00036866,-0.0
 0002715,-0.00007453,0.00404137,-0.00021815,0.00082404,0.00404137,0.000
 21815,0.00082404,0.00020521,0.00000934,0.00004506,0.00020598,-0.000007
 38,0.00003663,0.00020521,-0.00000934,0.00004506,0.00020598,0.00000738,
 0.00003663\\\@


 THE DIFFERENCE BETWEEN A NOOSE AND A HALO IS ONLY 12 INCHES.
 Job cpu time:       0 days  0 hours 20 minutes 55.0 seconds.
 Elapsed time:       0 days  0 hours  0 minutes 46.9 seconds.
 File lengths (MBytes):  RWF=     33 Int=      0 D2E=      0 Chk=     32 Scr=      1
 Normal termination of Gaussian 16 at Thu Apr  6 18:53:35 2023.
